
Running Job 1 of 1 tidas/B043/conf-0/spe_input.inp
qchem tidas/B043/conf-0/spe_input.inp_248826.0 /home/a/aspuru/seifridm/acdc_laser/descriptor_computation/qchem248826/ 0
/gpfs/fs1/scinet/niagara/software/commercial/qc54/exe/qcprog.exe_s tidas/B043/conf-0/spe_input.inp_248826.0 /home/a/aspuru/seifridm/acdc_laser/descriptor_computation/qchem248826/
                  Welcome to Q-Chem
     A Quantum Leap Into The Future Of Chemistry


 Q-Chem 5.4, Q-Chem, Inc., Pleasanton, CA (2021)

 License issued to: SRG Alan Aspuru-Guzik, University of Toronto

 E. Epifanovsky,  A. T. B. Gilbert,  Xintian Feng,  Joonho Lee,  Yuezhi Mao,  
 N. Mardirossian,  P. Pokhilko,  A. White,  M. Wormit,  M. P. Coons,  
 A. L. Dempwolff,  Zhengting Gan,  D. Hait,  P. R. Horn,  L. D. Jacobson,  
 I. Kaliman,  J. Kussmann,  A. W. Lange,  Ka Un Lao,  D. S. Levine,  Jie Liu,  
 S. C. McKenzie,  A. F. Morrison,  K. Nanda,  F. Plasser,  D. R. Rehn,  
 M. L. Vidal,  Zhi-Qiang You,  Ying Zhu,  B. Alam,  B. Albrecht,  
 A. Aldossary,  E. Alguire,  J. H. Andersen,  D. Barton,  K. Begam,  A. Behn,  
 Y. A. Bernard,  E. J. Berquist,  H. Burton,  A. Carreras,  K. Carter-Fenk,  
 Romit Chakraborty,  A. D. Chien,  K. D. Closser,  V. Cofer-Shabica,  
 S. Dasgupta,  Jia Deng,  M. de Wergifosse,  M. Diedenhofen,  Hainam Do,  
 S. Ehlert,  Po-Tung Fang,  S. Fatehi,  Qingguo Feng,  T. Friedhoff,  
 J. Gayvert,  Qinghui Ge,  G. Gidofalvi,  M. Goldey,  J. Gomes,  
 C. Gonzalez-Espinoza,  S. Gulania,  A. Gunina,  M. W. D. Hanson-Heine,  
 P. H. P. Harbach,  A. W. Hauser,  M. F. Herbst,  M. Hernandez Vera,  
 M. Hodecker,  Z. C. Holden,  S. Houck,  Xunkun Huang,  Kerwin Hui,  
 B. C. Huynh,  M. Ivanov,  Hyunjun Ji,  Hanjie Jiang,  B. Kaduk,  S. Kaehler,  
 K. Khistyaev,  Jaehoon Kim,  P. Klunzinger,  Z. Koczor-Benda,  
 Joong Hoon Koh,  D. Kosenkov,  L. Koulias,  T. Kowalczyk,  C. M. Krauter,  
 K. Kue,  A. Kunitsa,  T. Kus,  A. Landau,  K. V. Lawler,  D. Lefrancois,  
 S. Lehtola,  Rain Li,  Yi-Pei Li,  Jiashu Liang,  M. Liebenthal,  
 Hung-Hsuan Lin,  You-Sheng Lin,  Fenglai Liu,  Kuan-Yu Liu,  
 M. Loipersberger,  A. Luenser,  A. Manjanath,  P. Manohar,  E. Mansoor,  
 S. F. Manzer,  Shan-Ping Mao,  A. V. Marenich,  T. Markovich,  S. Mason,  
 S. A. Maurer,  P. F. McLaughlin,  M. F. S. J. Menger,  J.-M. Mewes,  
 S. A. Mewes,  P. Morgante,  J. W. Mullinax,  K. J. Oosterbaan,  G. Paran,  
 Alexander C. Paul,  Suranjan K. Paul,  F. Pavosevic,  Zheng Pei,  S. Prager,  
 E. I. Proynov,  E. Ramos,  B. Rana,  A. E. Rask,  A. Rettig,  R. M. Richard,  
 F. Rob,  E. Rossomme,  T. Scheele,  M. Scheurer,  M. Schneider,  
 N. Sergueev,  S. M. Sharada,  W. Skomorowski,  D. W. Small,  C. J. Stein,  
 Yu-Chuan Su,  E. J. Sundstrom,  Zhen Tao,  J. Thirman,  T. Tsuchimochi,  
 N. M. Tubman,  S. P. Veccham,  O. Vydrov,  J. Wenzel,  J. Witte,  A. Yamada,  
 Kun Yao,  S. Yeganeh,  S. R. Yost,  A. Zech,  Igor Ying Zhang,  Xing Zhang,  
 Yu Zhang,  D. Zuev,  A. Aspuru-Guzik,  A. T. Bell,  N. A. Besley,  
 K. B. Bravaya,  B. R. Brooks,  D. Casanova,  Jeng-Da Chai,  S. Coriani,  
 C. J. Cramer,  A. E. DePrince, III,  R. A. DiStasio Jr.,  A. Dreuw,  
 B. D. Dunietz,  T. R. Furlani,  W. A. Goddard III,  S. Grimme,  
 S. Hammes-Schiffer,  T. Head-Gordon,  W. J. Hehre,  Chao-Ping Hsu,  
 T.-C. Jagau,  Yousung Jung,  A. Klamt,  Jing Kong,  D. S. Lambrecht,  
 WanZhen Liang,  N. J. Mayhall,  C. W. McCurdy,  J. B. Neaton,  T. Neudecker,  
 C. Ochsenfeld,  J. A. Parkhill,  R. Peverati,  V. A. Rassolov,  Yihan Shao,  
 L. V. Slipchenko,  R. P. Steele,  J. E. Subotnik,  A. J. W. Thom,  
 A. Tkatchenko,  D. G. Truhlar,  T. Van Voorhis,  T. A. Wesolowski,  
 K. B. Whaley,  H. L. Woodcock III,  P. M. Zimmerman,  S. Faraji,  
 P. M. W. Gill,  M. Head-Gordon,  J. M. Herbert,  A. I. Krylov

 Additional authors since Version 5.4.0: 
 Chandrima Chakravarty,  L. Cunha,  R. Kang,  Yongbin Kim,  S. Kotaru,  
 Shaozhi Li,  Xiangyuan Li,  F. Matz,  A. Molle,  V. Parravicini,  
 Haisheng Ren,  Hengyuan Shen,  Yingli Su,  Hung-Yi Tsai,  C. Utku,  
 Fang Wang,  Jeff Yang,  F. Zeller

 Contributors to earlier versions of Q-Chem not listed above: 
 R. D. Adamson,  B. Austin,  R. Baer,  J. Baker,  G. J. O. Beran,  
 K. Brandhorst,  S. T. Brown,  E. F. C. Byrd,  Arup K. Chakraborty,  
 G. K. L. Chan,  Chun-Min Chang,  Yunqing Chen,  C.-L. Cheng,  
 Siu Hung Chien,  D. M. Chipman,  D. L. Crittenden,  H. Dachsel,  
 R. J. Doerksen,  A. D. Dutoi,  R. G. Edgar,  J. Fosso-Tande,  
 L. Fusti-Molnar,  D. Ghosh,  A. Ghysels,  A. Golubeva-Zadorozhnaya,  
 J. Gonthier,  M. S. Gordon,  S. R. Gwaltney,  G. Hawkins,  J. E. Herr,  
 A. Heyden,  S. Hirata,  E. G. Hohenstein,  G. Kedziora,  F. J. Keil,  
 C. Kelley,  Jihan Kim,  R. A. King,  R. Z. Khaliullin,  P. P. Korambath,  
 W. Kurlancheek,  A. Laurent,  A. M. Lee,  M. S. Lee,  S. V. Levchenko,  
 Ching Yeh Lin,  D. Liotard,  E. Livshits,  R. C. Lochan,  I. Lotan,  
 L. A. Martinez-Martinez,  P. E. Maslen,  N. Nair,  D. P. O'Neill,  
 D. Neuhauser,  E. Neuscamman,  C. M. Oana,  R. Olivares-Amaya,  R. Olson,  
 T. M. Perrine,  B. Peters,  P. A. Pieniazek,  A. Prociuk,  Y. M. Rhee,  
 J. Ritchie,  M. A. Rohrdanz,  E. Rosta,  N. J. Russ,  H. F. Schaefer III,  
 M. W. Schmidt,  N. E. Schultz,  S. Sharma,  N. Shenvi,  C. D. Sherrill,  
 A. C. Simmonett,  A. Sodt,  T. Stein,  D. Stuck,  K. S. Thanthiriwatte,  
 V. Vanovschi,  L. Vogt,  Tao Wang,  A. Warshel,  M. A. Watson,  
 C. F. Williams,  Q. Wu,  X. Xu,  Jun Yang,  W. Zhang,  Yan Zhao

   Please cite Q-Chem as follows:
  "Software for the frontiers of quantum chemistry:
   An overview of developments in the Q-Chem 5 package"
   J. Chem. Phys. 155, 084801 (2021)
   https://doi.org/10.1063/5.0055522 (open access)

 Q-Chem 5.4.2 for Intel X86 EM64T Linux

 Parts of Q-Chem use Armadillo 9.900.5 (Nocturnal Misbehaviour).
 http://arma.sourceforge.net/

 Q-Chem begins on Fri Aug 12 12:44:42 2022  

 Host: 
0

     Scratch files written to /home/a/aspuru/seifridm/acdc_laser/descriptor_computation/qchem248826//
 Dec1321 |scratch|qcdevops|jenkins|workspace|build_RNUM 6959   
 Processing $rem in /gpfs/fs1/scinet/niagara/software/commercial/qc54/config/preferences:
 Processing $rem in /home/a/aspuru/seifridm/.qchemrc:

 Checking the input file for inconsistencies... 	...done.

--------------------------------------------------------------
User input:
--------------------------------------------------------------
$molecule
0 1
C           -1.41233859380000        3.40836848470000        0.05992235720000
C           -2.11633019350000        2.28831996010000       -0.04719691550000
C           -1.59507917610000        0.92526814470000       -0.03043240360000
C           -2.49901253050000       -0.13800038860000       -0.01385269570000
C           -2.06759614410000       -1.45526322710000        0.00431919030000
C           -3.04847745620000       -2.58776024460000        0.04381341690000
C           -0.70471648690000       -1.71074952290000        0.00270268690000
C            0.22559236570000       -0.67027472910000       -0.01673391860000
C            1.63787825020000       -1.02309745050000       -0.02066783880000
C            2.69152183980000       -0.22141930500000       -0.00006609460000
F            2.71479867080000        1.10643312050000        0.02891876570000
F            3.94701610660000       -0.67077093280000       -0.00371508570000
C           -0.23157905850000        0.64453669550000       -0.03473217710000
H           -1.89132411230000        4.37228066090000        0.04017276210000
H           -0.34223692990000        3.41821593490000        0.17497542330000
H           -3.19312575840000        2.35410285040000       -0.14804740110000
H           -3.55964468450000        0.07208630530000       -0.01340791720000
H           -4.03458169980000       -2.26046590440000       -0.27565843450000
H           -3.13023844040000       -2.97359013340000        1.06027584430000
H           -2.72221391840000       -3.40359696360000       -0.59776564890000
H           -0.35719190240000       -2.73397927800000        0.01491281320000
H            1.86959141330000       -2.07856112100000       -0.03820691600000
H            0.47253052070000        1.45745374720000       -0.06163460660000
$end

$rem
BASIS = 6-31G*
GUI = 2
METHOD = B3LYP
PRINT_ORBITALS false
MOLDEN_FORMAT false
$end
--------------------------------------------------------------
 ----------------------------------------------------------------
             Standard Nuclear Orientation (Angstroms)
    I     Atom           X                Y                Z
 ----------------------------------------------------------------
    1      C      -1.2307979547    -3.4411532867    -0.0597222281
    2      C      -1.9534556559    -2.3331091496     0.0479413479
    3      C      -1.4551655597    -0.9614946698     0.0313696110
    4      C      -2.3768263760     0.0864539279     0.0153869303
    5      C      -1.9675900698     1.4107781903    -0.0025740074
    6      C      -2.9673580529     2.5266598716    -0.0414261661
    7      C      -0.6091908499     1.6891069310    -0.0013525603
    8      C       0.3384600928     0.6643908700     0.0174842230
    9      C       1.7446253816     1.0408710909     0.0210327004
   10      C       2.8115711515     0.2569991106    -0.0001460010
   11      F       2.8571254471    -1.0702676925    -0.0294996483
   12      F       4.0593463898     0.7273626211     0.0031972167
   13      C      -0.0965688325    -0.6579146319     0.0352809770
   14      H      -1.6935278655    -4.4129756620    -0.0400713428
   15      H      -0.1607215667    -3.4330047716    -0.1751426639
   16      H      -3.0289602937    -2.4169859388     0.1491409327
   17      H      -3.4337824231    -0.1414080430     0.0152465360
   18      H      -3.9477186468     2.1827727893     0.2782927866
   19      H      -3.0559354774     2.9113332218    -1.0577557788
   20      H      -2.6546144651     3.3476879784     0.6002633554
   21      H      -0.2788965057     2.7180296626    -0.0134030538
   22      H       1.9585937909     2.1000711357     0.0387796375
   23      H       0.6210972744    -1.4589042555     0.0617225162
 ----------------------------------------------------------------
 Molecular Point Group                 C1    NOp =  1
 Largest Abelian Subgroup              C1    NOp =  1
 Nuclear Repulsion Energy =         731.83311945 hartrees
 There are       47 alpha and       47 beta electrons
 Requested basis set is 6-31G(d)
 There are 72 shells and 215 basis functions

 Total QAlloc Memory Limit   8000 MB
 Mega-Array Size       188 MB
 MEM_STATIC part       192 MB
 A cutoff of  1.0D-08 yielded   1745 shell pairs
 There are     16597 function pairs
 Smallest overlap matrix eigenvalue = 3.50E-04

 Scale SEOQF with 1.000000e-01/1.000000e-01/1.000000e+00

 Standard Electronic Orientation quadrupole field applied
 Nucleus-field energy     =     0.0000000362 hartrees
 Guess from superposition of atomic densities
 Warning:  Energy on first SCF cycle will be non-variational
 SAD guess density has 94.000000 electrons

 -----------------------------------------------------------------------
  General SCF calculation program by
  Eric Jon Sundstrom, Paul Horn, Yuezhi Mao, Dmitri Zuev, Alec White,
  David Stuck, Shaama M.S., Shane Yost, Joonho Lee, David Small,
  Daniel Levine, Susi Lehtola, Hugh Burton, Evgeny Epifanovsky,
  Bang C. Huynh
 -----------------------------------------------------------------------
 Exchange:     0.2000 Hartree-Fock + 0.0800 Slater + 0.7200 B88
 Correlation:  0.1900 VWN1RPA + 0.8100 LYP
 Using SG-1 standard quadrature grid
 A restricted SCF calculation will be
 performed using DIIS
 SCF converges when DIIS error is below 1.0e-05
 ---------------------------------------
  Cycle       Energy         DIIS error
 ---------------------------------------
    1    -627.7065985964      5.42e-02  
    2    -624.5963261329      6.22e-03  
    3    -624.4217578138      8.24e-03  
    4    -624.8167705452      1.63e-03  
    5    -624.8320995392      4.71e-04  
    6    -624.8330939730      2.42e-04  
    7    -624.8334463362      4.81e-05  
    8    -624.8334578912      1.92e-05  
    9    -624.8334604123      6.80e-06  Convergence criterion met
 ---------------------------------------
 SCF time:   CPU 43.40s  wall 45.00s 
 SCF   energy in the final basis set =     -624.8334604123
 Total energy in the final basis set =     -624.8334604123
 
 --------------------------------------------------------------
 
                    Orbital Energies (a.u.)
 --------------------------------------------------------------
 
 Alpha MOs
 -- Occupied --
-24.7436 -24.7327 -10.3554 -10.2043 -10.2016 -10.1947 -10.1937 -10.1888
-10.1851 -10.1828 -10.1825 -10.1822 -10.1788  -1.2841  -1.2230  -0.8710
 -0.8134  -0.7968  -0.7527  -0.7288  -0.6885  -0.6451  -0.6235  -0.6001
 -0.5724  -0.5466  -0.5211  -0.5177  -0.5009  -0.4753  -0.4616  -0.4397
 -0.4355  -0.4277  -0.4256  -0.4195  -0.4182  -0.3997  -0.3856  -0.3737
 -0.3680  -0.3413  -0.3391  -0.3163  -0.2759  -0.2263  -0.2176
 -- Virtual --
 -0.0306  -0.0231   0.0494   0.0838   0.0881   0.1095   0.1188   0.1238
  0.1478   0.1537   0.1623   0.1710   0.1761   0.1885   0.2065   0.2130
  0.2402   0.2445   0.3003   0.3133   0.3315   0.3453   0.3557   0.3815
  0.4302   0.4350   0.4743   0.4965   0.5196   0.5270   0.5306   0.5382
  0.5463   0.5513   0.5578   0.5736   0.5817   0.5837   0.5966   0.6005
  0.6083   0.6249   0.6340   0.6402   0.6611   0.6797   0.7020   0.7229
  0.7509   0.7569   0.7738   0.7830   0.7986   0.8274   0.8322   0.8371
  0.8647   0.8855   0.8869   0.8929   0.9158   0.9375   0.9548   0.9620
  0.9688   1.0095   1.0213   1.0387   1.0669   1.0956   1.1133   1.1441
  1.1607   1.1709   1.1873   1.2179   1.2269   1.2323   1.2569   1.2749
  1.3010   1.3382   1.3453   1.3672   1.3904   1.3931   1.4051   1.4384
  1.4575   1.4732   1.4789   1.4967   1.5184   1.5308   1.5544   1.6071
  1.6634   1.6795   1.7363   1.7766   1.7839   1.7961   1.8222   1.8371
  1.8383   1.8671   1.8725   1.8926   1.9032   1.9204   1.9248   1.9558
  1.9709   1.9857   1.9903   2.0226   2.0267   2.0314   2.0704   2.1262
  2.1294   2.1490   2.1780   2.2029   2.2307   2.2355   2.2499   2.2775
  2.3054   2.3174   2.3431   2.3550   2.3737   2.4130   2.4510   2.5200
  2.5241   2.5257   2.6143   2.6381   2.6425   2.6734   2.7037   2.7342
  2.7850   2.8598   2.8687   2.9005   2.9523   2.9811   3.0642   3.1265
  3.1921   3.3285   3.4801   4.0813   4.0962   4.1177   4.1322   4.1618
  4.2333   4.2491   4.2764   4.4577   4.4928   4.7396   4.8267   5.3002
 --------------------------------------------------------------
 
          Ground-State Mulliken Net Atomic Charges

     Atom                 Charge (a.u.)
  ----------------------------------------
      1 C                    -0.352424
      2 C                    -0.115350
      3 C                     0.187323
      4 C                    -0.257633
      5 C                     0.185018
      6 C                    -0.529501
      7 C                    -0.251334
      8 C                     0.205407
      9 C                    -0.300035
     10 C                     0.544954
     11 F                    -0.234046
     12 F                    -0.250253
     13 C                    -0.265234
     14 H                     0.143890
     15 H                     0.147107
     16 H                     0.126177
     17 H                     0.119121
     18 H                     0.157186
     19 H                     0.167956
     20 H                     0.159823
     21 H                     0.118621
     22 H                     0.158550
     23 H                     0.134676
  ----------------------------------------
  Sum of atomic charges =     0.000000

 -----------------------------------------------------------------
                    Cartesian Multipole Moments
 -----------------------------------------------------------------
    Charge (ESU x 10^10)
                 0.0000
    Dipole Moment (Debye)
         X      -1.2198      Y       0.9145      Z      -0.0339
       Tot       1.5249
    Quadrupole Moments (Debye-Ang)
        XX     -72.3509     XY      -0.1663     YY     -67.3585
        XZ      -0.0761     YZ      -0.0889     ZZ     -77.0168
    Octopole Moments (Debye-Ang^2)
       XXX      14.7732    XXY      -1.3695    XYY      13.0041
       YYY      -1.7146    XXZ       0.7007    XYZ       1.1590
       YYZ      -0.4516    XZZ      22.9035    YZZ       2.4770
       ZZZ      -0.9506
    Hexadecapole Moments (Debye-Ang^3)
      XXXX   -2195.7055   XXXY      -4.3684   XXYY    -579.1875
      XYYY      14.6348   YYYY   -1320.5048   XXXZ      -4.3559
      XXYZ      -3.3964   XYYZ      -0.6807   YYYZ       3.7276
      XXZZ    -381.3208   XYZZ     -11.0961   YYZZ    -264.7013
      XZZZ       1.0097   YZZZ      -1.5985   ZZZZ     -81.6705
 -----------------------------------------------------------------
 Total job time:  46.03s(wall), 43.84s(cpu) 
 Fri Aug 12 12:45:28 2022

        *************************************************************
        *                                                           *
        *  Thank you very much for using Q-Chem.  Have a nice day.  *
        *                                                           *
        *************************************************************


