
Running Job 1 of 1 fragments/C084/conf-8/spe_input.inp
qchem fragments/C084/conf-8/spe_input.inp_113497.0 /gpfs/fs0/scratch/a/aspuru/rhickman/descriptor_computation/qchem113497/ 0
/scinet/niagara/software/commercial/qc52/exe/qcprog.exe_s fragments/C084/conf-8/spe_input.inp_113497.0 /gpfs/fs0/scratch/a/aspuru/rhickman/descriptor_computation/qchem113497/
                  Welcome to Q-Chem
     A Quantum Leap Into The Future Of Chemistry


 Q-Chem 5.2, Q-Chem, Inc., Pleasanton, CA (2019)

 License issued to: SRG Alan Aspuru-Guzik, University of Toronto

 Yihan Shao,  Zhengting Gan,  E. Epifanovsky,  A. T. B. Gilbert,  M. Wormit,  
 J. Kussmann,  A. W. Lange,  A. Behn,  Jia Deng,  Xintian Feng,  D. Ghosh,  
 M. Goldey,  P. R. Horn,  L. D. Jacobson,  I. Kaliman,  T. Kus,  A. Landau,  
 Jie Liu,  E. I. Proynov,  R. M. Richard,  R. P. Steele,  E. J. Sundstrom,  
 H. L. Woodcock III,  P. M. Zimmerman,  D. Zuev,  B. Albrecht,  E. Alguire,  
 S. A. Baeppler,  D. Barton,  Z. Benda,  Y. A. Bernard,  E. J. Berquist,  
 K. B. Bravaya,  H. Burton,  D. Casanova,  Chun-Min Chang,  Yunqing Chen,  
 A. Chien,  K. D. Closser,  M. P. Coons,  S. Coriani,  S. Dasgupta,  
 A. L. Dempwolff,  M. Diedenhofen,  Hainam Do,  R. G. Edgar,  Po-Tung Fang,  
 S. Faraji,  S. Fatehi,  Qingguo Feng,  K. D. Fenk,  J. Fosso-Tande,  
 J. Gayvert,  Qinghui Ge,  A. Ghysels,  G. Gidofalvi,  J. Gomes,  
 J. Gonthier,  A. Gunina,  D. Hait,  M. W. D. Hanson-Heine,  
 P. H. P. Harbach,  A. W. Hauser,  M. F. Herbst,  J. E. Herr,  
 E. G. Hohenstein,  Z. C. Holden,  Kerwin Hui,  B. C. Huynh,  T.-C. Jagau,  
 Hyunjun Ji,  B. Kaduk,  K. Khistyaev,  Jaehoon Kim,  P. Klunzinger,  K. Koh,  
 D. Kosenkov,  L. Koulias,  T. Kowalczyk,  C. M. Krauter,  A. Kunitsa,  
 Ka Un Lao,  A. Laurent,  K. V. Lawler,  Joonho Lee,  D. Lefrancois,  
 S. Lehtola,  D. S. Levine,  Yi-Pei Li,  You-Sheng Lin,  Fenglai Liu,  
 E. Livshits,  A. Luenser,  P. Manohar,  E. Mansoor,  S. F. Manzer,  
 Shan-Ping Mao,  Yuezhi Mao,  N. Mardirossian,  A. V. Marenich,  
 T. Markovich,  L. A. Martinez-Martinez,  S. A. Maurer,  N. J. Mayhall,  
 S. C. McKenzie,  J.-M. Mewes,  P. Morgante,  A. F. Morrison,  
 J. W. Mullinax,  K. Nanda,  T. S. Nguyen-Beck,  R. Olivares-Amaya,  
 J. A. Parkhill,  Zheng Pei,  T. M. Perrine,  F. Plasser,  P. Pokhilko,  
 S. Prager,  A. Prociuk,  E. Ramos,  D. R. Rehn,  F. Rob,  M. Scheurer,  
 M. Schneider,  N. Sergueev,  S. M. Sharada,  S. Sharma,  D. W. Small,  
 T. Stauch,  T. Stein,  Yu-Chuan Su,  A. J. W. Thom,  A. Tkatchenko,  
 T. Tsuchimochi,  N. M. Tubman,  L. Vogt,  M. L. Vidal,  O. Vydrov,  
 M. A. Watson,  J. Wenzel,  M. de Wergifosse,  T. A. Wesolowski,  A. White,  
 J. Witte,  A. Yamada,  Jun Yang,  K. Yao,  S. Yeganeh,  S. R. Yost,  
 Zhi-Qiang You,  A. Zech,  Igor Ying Zhang,  Xing Zhang,  Yan Zhao,  
 Ying Zhu,  B. R. Brooks,  G. K. L. Chan,  C. J. Cramer,  M. S. Gordon,  
 W. J. Hehre,  A. Klamt,  M. W. Schmidt,  C. D. Sherrill,  D. G. Truhlar,  
 A. Aspuru-Guzik,  R. Baer,  A. T. Bell,  N. A. Besley,  Jeng-Da Chai,  
 A. E. DePrince, III,  R. A. DiStasio Jr.,  A. Dreuw,  B. D. Dunietz,  
 T. R. Furlani,  Chao-Ping Hsu,  Yousung Jung,  Jing Kong,  D. S. Lambrecht,  
 WanZhen Liang,  C. Ochsenfeld,  V. A. Rassolov,  L. V. Slipchenko,  
 J. E. Subotnik,  T. Van Voorhis,  J. M. Herbert,  A. I. Krylov,  
 P. M. W. Gill,  M. Head-Gordon

 Contributors to earlier versions of Q-Chem not listed above: 
 R. D. Adamson,  B. Austin,  J. Baker,  G. J. O. Beran,  K. Brandhorst,  
 S. T. Brown,  E. F. C. Byrd,  A. K. Chakraborty,  C.-L. Cheng,  
 Siu Hung Chien,  D. M. Chipman,  D. L. Crittenden,  H. Dachsel,  
 R. J. Doerksen,  A. D. Dutoi,  L. Fusti-Molnar,  W. A. Goddard III,  
 A. Golubeva-Zadorozhnaya,  S. R. Gwaltney,  G. Hawkins,  A. Heyden,  
 S. Hirata,  G. Kedziora,  F. J. Keil,  C. Kelley,  Jihan Kim,  R. A. King,  
 R. Z. Khaliullin,  P. P. Korambath,  W. Kurlancheek,  A. M. Lee,  M. S. Lee,  
 S. V. Levchenko,  Ching Yeh Lin,  D. Liotard,  R. C. Lochan,  I. Lotan,  
 P. E. Maslen,  N. Nair,  D. P. O'Neill,  D. Neuhauser,  E. Neuscamman,  
 C. M. Oana,  R. Olson,  B. Peters,  R. Peverati,  P. A. Pieniazek,  
 Y. M. Rhee,  J. Ritchie,  M. A. Rohrdanz,  E. Rosta,  N. J. Russ,  
 H. F. Schaefer III,  N. E. Schultz,  N. Shenvi,  A. C. Simmonett,  A. Sodt,  
 D. Stuck,  K. S. Thanthiriwatte,  V. Vanovschi,  Tao Wang,  A. Warshel,  
 C. F. Williams,  Q. Wu,  X. Xu,  W. Zhang

 Please cite Q-Chem as follows:
 Y. Shao et al., Mol. Phys. 113, 184-215 (2015)
 DOI: 10.1080/00268976.2014.952696

 Q-Chem 5.2.1 for Intel X86 EM64T Linux

 Parts of Q-Chem use Armadillo 8.300.2 (Tropical Shenanigans).
 http://arma.sourceforge.net/

 Q-Chem begins on Mon Feb  7 15:37:28 2022  

Host: 
0

     Scratch files written to /gpfs/fs0/scratch/a/aspuru/rhickman/descriptor_computation/qchem113497//
 Jul1719 |scratch|qcdevops|jenkins|workspace|build_RNUM -1
Processing $rem in /scinet/niagara/software/commercial/qc52/config/preferences:
	 MEM_TOTAL  4000 
NAlpha2: 152
NElect   152
Mult     1

Checking the input file for inconsistencies... 	...done.

--------------------------------------------------------------
User input:
--------------------------------------------------------------
$molecule
0 1
C         1.37413875100000   -4.19513693800000    1.57932941910000
C         2.45848987510000   -3.42393807010000    1.54390628900000
C         2.52693652620000   -2.11104895510000    0.96151495510000
C         1.55867577230000   -1.36907091560000    0.33412663700000
C         1.99953497870000   -0.11397091180000   -0.12132027800000
C         1.09075386810000    0.86602297350000   -0.79553350770000
C         0.56184397270000    1.89587598630000    0.21037008140000
C        -0.29028136650000    2.98697078660000   -0.43819716890000
C        -1.57138532410000    2.49234005970000   -1.11206876190000
C        -2.54586533590000    1.82071782330000   -0.14710982630000
C        -3.87132871430000    1.47978577630000   -0.82472722330000
C        -4.83604510560000    0.78958496610000    0.13692571530000
C        -6.22503715460000    0.55126423320000   -0.45737462450000
C        -6.25812257730000   -0.38114275890000   -1.66965445790000
C        -5.77407228900000   -1.79228052520000   -1.35735380990000
C         3.32851123610000    0.11802193840000    0.16924115100000
C         4.10678881280000    1.28586543670000   -0.13568841650000
C         5.37280687670000    1.47522042080000    0.22795453940000
S         4.02908537370000   -1.23948572240000    1.00191857890000
H         1.39649627840000   -5.17025395450000    2.03259062980000
H         0.43379785710000   -3.88220555770000    1.15999366580000
H         3.38447980230000   -3.77857345120000    1.97798721450000
H         0.55036427800000   -1.71725743080000    0.19661059960000
H         0.25554972140000    0.32011426580000   -1.23567410560000
H         1.61858642030000    1.38366800300000   -1.59953613080000
H         1.41346956600000    2.36997429860000    0.70497456100000
H        -0.01342873590000    1.38115040250000    0.98151079520000
H         0.31532786720000    3.50802591670000   -1.18462175080000
H        -0.55930055090000    3.71444488290000    0.33181794840000
H        -1.32343044210000    1.80069744880000   -1.91942179400000
H        -2.06815271000000    3.35326132580000   -1.56729900580000
H        -2.73229050020000    2.48770070630000    0.69826860840000
H        -2.10571364870000    0.90248416160000    0.24614480310000
H        -3.67358101540000    0.83170169170000   -1.68049484440000
H        -4.33214055640000    2.39630001090000   -1.20154471930000
H        -4.95029245330000    1.41590566100000    1.02579887900000
H        -4.40680520130000   -0.15896492070000    0.46405915280000
H        -6.65059685200000    1.51484894410000   -0.74939247260000
H        -6.86659793470000    0.13150261480000    0.32184840920000
H        -5.65656599390000    0.04048783570000   -2.47657357940000
H        -7.28944932070000   -0.43373974140000   -2.02762123980000
H        -4.71638159090000   -1.79696479180000   -1.10740941270000
H        -5.91958745350000   -2.44038579810000   -2.21888185720000
H        -6.32849555880000   -2.20782274660000   -0.51839900010000
H         3.58925455720000    2.04903718700000   -0.70193093660000
H         5.91070281910000    0.73555806780000    0.79781046530000
H         5.90717992630000    2.37224419800000   -0.03005325590000
$end

$rem
BASIS = 6-31G*
GUI = 2
METHOD = B3LYP
PRINT_ORBITALS false
MOLDEN_FORMAT false
--------------------------------------------------------------
 ----------------------------------------------------------------
             Standard Nuclear Orientation (Angstroms)
    I     Atom           X                Y                Z
 ----------------------------------------------------------------
    1      C      -2.2694253073    -4.1855030477    -0.3771023484
    2      C      -3.2314085617    -3.2655567593    -0.3667632462
    3      C      -3.0416819950    -1.8665120526    -0.0943294438
    4      C      -1.8988484249    -1.1699719260     0.2064024689
    5      C      -2.1019041670     0.2046186361     0.4216555849
    6      C      -0.9807085291     1.1499826054     0.7217254241
    7      C      -0.5108529390     1.8568344014    -0.5556864903
    8      C       0.5639037761     2.9130401909    -0.2976704662
    9      C       1.8721774761     2.3757873315     0.2852267125
   10      C       2.5805425968     1.3779737876    -0.6282394646
   11      C       3.9512923386     0.9831777182    -0.0828640216
   12      C       4.6484397577    -0.0304035060    -0.9875572438
   13      C       6.0794728379    -0.3529674742    -0.5546769050
   14      C       6.2060998668    -1.0099781697     0.8209692633
   15      C       5.5101288490    -2.3631723654     0.9083533738
   16      C      -3.4233319511     0.5742341040     0.2745585534
   17      C      -3.9924897842     1.8856463883     0.4117213978
   18      C      -5.2698883295     2.1893172453     0.1950875720
   19      S      -4.4131571390    -0.8006682213    -0.1215128588
   20      H      -2.4854526019    -5.2175672904    -0.5891740039
   21      H      -1.2407952986    -3.9420465839    -0.1754621366
   22      H      -4.2535166863    -3.5545618518    -0.5751400364
   23      H      -0.9310401350    -1.6338361952     0.2772094832
   24      H      -0.1544762566     0.5839623998     1.1533124818
   25      H      -1.2980758218     1.8969654009     1.4526689940
   26      H      -1.3710316421     2.3447974006    -1.0211471894
   27      H      -0.1411449019     1.1121045787    -1.2622504116
   28      H       0.1610797388     3.6634894342     0.3878726595
   29      H       0.7833861513     3.4162747947    -1.2427078113
   30      H       1.6839503655     1.9116032135     1.2551616086
   31      H       2.5388450806     3.2246679953     0.4588750951
   32      H       2.6991599372     1.8200087058    -1.6206205726
   33      H       1.9729114798     0.4777058596    -0.7370413590
   34      H       3.8256365003     0.5632897145     0.9168159418
   35      H       4.5761286256     1.8752163991     0.0076010410
   36      H       4.6841811587     0.3745369245    -2.0025308250
   37      H       4.0590887017    -0.9480627177    -1.0272683635
   38      H       6.6610562957     0.5725717545    -0.5517117270
   39      H       6.5240420822    -1.0178177070    -1.2998754974
   40      H       5.8055935594    -0.3438041124     1.5868465205
   41      H       7.2694019418    -1.1464261372     1.0338357956
   42      H       4.4325378924    -2.2558083658     0.8162965508
   43      H       5.7211915481    -2.8348827441     1.8656347012
   44      H       5.8598164530    -3.0227717947     0.1168024625
   45      H      -3.2983626124     2.6596740637     0.7116748021
   46      H      -5.9817233437     1.4404093345    -0.1108471777
   47      H      -5.6409790486     3.1917164195     0.3145103890
 ----------------------------------------------------------------
 Molecular Point Group                 C1    NOp =  1
 Largest Abelian Subgroup              C1    NOp =  1
 Nuclear Repulsion Energy =        1471.55012721 hartrees
 There are       76 alpha and       76 beta electrons
 Requested basis set is 6-31G(d)
 There are 133 shells and 345 basis functions

 Total QAlloc Memory Limit   4000 MB
 Mega-Array Size       188 MB
 MEM_STATIC part       192 MB
 A cutoff of  1.0D-08 yielded   4056 shell pairs
 There are     28366 function pairs
 Smallest overlap matrix eigenvalue = 6.74E-04

 Scale SEOQF with 1.000000e-02/1.000000e-01/1.000000e-01

 Standard Electronic Orientation quadrupole field applied
 Nucleus-field energy     =     0.0000000439 hartrees
 Guess from superposition of atomic densities
 Warning:  Energy on first SCF cycle will be non-variational
 SAD guess density has 152.000000 electrons

 -----------------------------------------------------------------------
  General SCF calculation program by
  Eric Jon Sundstrom, Paul Horn, Yuezhi Mao, Dmitri Zuev, Alec White,
  David Stuck, Shaama M.S., Shane Yost, Joonho Lee, David Small,
  Daniel Levine, Susi Lehtola, Hugh Burton, Evgeny Epifanovsky,
  Bang C. Huynh
 -----------------------------------------------------------------------
 Exchange:     0.2000 Hartree-Fock + 0.0800 Slater + 0.7200 B88
 Correlation:  0.1900 VWN1RPA + 0.8100 LYP
 Using SG-1 standard quadrature grid
 A restricted SCF calculation will be
 performed using DIIS
 SCF converges when DIIS error is below 1.0e-05
 ---------------------------------------
  Cycle       Energy         DIIS error
 ---------------------------------------
    1   -1104.8192547139      4.24e-02  
    2   -1100.5291187216      4.95e-03  
    3   -1100.4013065724      5.69e-03  
    4   -1100.9188860068      9.79e-04  
    5   -1100.9331943538      4.26e-04  
    6   -1100.9360299293      1.08e-04  
    7   -1100.9361952229      4.14e-05  
    8   -1100.9362207794      1.36e-05  
    9   -1100.9362234884      2.44e-06  Convergence criterion met
 ---------------------------------------
 SCF time:   CPU 83.71s  wall 84.00s 
 SCF   energy in the final basis set =    -1100.9362234884
 Total energy in the final basis set =    -1100.9362234884
 
 --------------------------------------------------------------
 
                    Orbital Energies (a.u.)
 --------------------------------------------------------------
 
 Alpha MOs
 -- Occupied --
-88.8988 -10.2156 -10.2105 -10.1973 -10.1948 -10.1923 -10.1872 -10.1835
-10.1815 -10.1784 -10.1780 -10.1757 -10.1744 -10.1740 -10.1735 -10.1731
-10.1718 -10.1716 -10.1679  -7.9607  -5.9246  -5.9212  -5.9177  -0.8884
 -0.8191  -0.8083  -0.7996  -0.7804  -0.7675  -0.7486  -0.7196  -0.7020
 -0.6849  -0.6527  -0.6232  -0.6219  -0.5958  -0.5796  -0.5578  -0.5487
 -0.5358  -0.5242  -0.4906  -0.4795  -0.4690  -0.4586  -0.4579  -0.4523
 -0.4425  -0.4282  -0.4210  -0.4118  -0.4104  -0.4026  -0.3937  -0.3880
 -0.3843  -0.3742  -0.3687  -0.3654  -0.3608  -0.3538  -0.3507  -0.3460
 -0.3377  -0.3329  -0.3267  -0.3191  -0.3181  -0.3144  -0.3131  -0.3088
 -0.2949  -0.2674  -0.2434  -0.1939
 -- Virtual --
 -0.0502   0.0116   0.0281   0.0726   0.0801   0.0865   0.0967   0.1023
  0.1093   0.1150   0.1175   0.1198   0.1292   0.1357   0.1375   0.1398
  0.1546   0.1602   0.1612   0.1696   0.1712   0.1741   0.1791   0.1848
  0.1888   0.1932   0.1954   0.2009   0.2063   0.2079   0.2127   0.2226
  0.2249   0.2293   0.2333   0.2417   0.2457   0.2474   0.2629   0.2707
  0.2816   0.2848   0.2923   0.2977   0.3055   0.3120   0.3192   0.3338
  0.3408   0.3672   0.3701   0.4115   0.4474   0.4719   0.4867   0.4952
  0.4964   0.5027   0.5089   0.5116   0.5198   0.5266   0.5324   0.5357
  0.5494   0.5574   0.5613   0.5778   0.5834   0.5920   0.5939   0.6020
  0.6099   0.6130   0.6259   0.6286   0.6421   0.6469   0.6578   0.6622
  0.6724   0.6763   0.6836   0.6862   0.6896   0.6954   0.7019   0.7119
  0.7261   0.7365   0.7525   0.7744   0.7848   0.7975   0.8063   0.8103
  0.8257   0.8376   0.8431   0.8471   0.8582   0.8606   0.8651   0.8666
  0.8683   0.8718   0.8790   0.8870   0.8899   0.8947   0.9024   0.9081
  0.9091   0.9161   0.9297   0.9333   0.9481   0.9489   0.9537   0.9578
  0.9598   0.9676   0.9711   0.9741   0.9788   0.9860   0.9903   1.0000
  1.0049   1.0149   1.0236   1.0272   1.0347   1.0529   1.0579   1.0621
  1.0844   1.0992   1.1271   1.1358   1.1504   1.1748   1.1910   1.2304
  1.2349   1.2905   1.2934   1.2998   1.3091   1.3534   1.3607   1.3886
  1.3969   1.4202   1.4346   1.4430   1.4528   1.4564   1.4722   1.4832
  1.5139   1.5399   1.5660   1.5828   1.5976   1.6093   1.6135   1.6240
  1.6353   1.6427   1.6861   1.7088   1.7221   1.7333   1.7549   1.7976
  1.8076   1.8266   1.8457   1.8578   1.8656   1.8769   1.8901   1.9077
  1.9262   1.9304   1.9397   1.9591   1.9638   1.9726   1.9836   1.9932
  1.9989   2.0067   2.0244   2.0270   2.0373   2.0520   2.0610   2.0708
  2.0787   2.0996   2.1011   2.1538   2.1575   2.1612   2.1757   2.1951
  2.2059   2.2276   2.2502   2.2720   2.2729   2.2844   2.3130   2.3211
  2.3379   2.3471   2.3556   2.3740   2.3822   2.3974   2.4051   2.4241
  2.4453   2.4540   2.4702   2.4733   2.4779   2.5080   2.5442   2.5668
  2.5802   2.5962   2.6072   2.6330   2.6416   2.6618   2.6777   2.7147
  2.7487   2.7607   2.7917   2.8170   2.8631   2.8796   2.9604   3.0347
  3.1092   3.2167   3.9742   4.0935   4.1171   4.1227   4.1481   4.1602
  4.1833   4.2225   4.2322   4.2928   4.3559   4.3726   4.4206   4.4538
  4.5016   4.5263   4.5454   4.5973   4.6510
 --------------------------------------------------------------
 
          Ground-State Mulliken Net Atomic Charges

     Atom                 Charge (a.u.)
  ----------------------------------------
      1 C                    -0.341727
      2 C                    -0.088257
      3 C                    -0.128098
      4 C                    -0.161994
      5 C                     0.155429
      6 C                    -0.350499
      7 C                    -0.258295
      8 C                    -0.256862
      9 C                    -0.259649
     10 C                    -0.255749
     11 C                    -0.255454
     12 C                    -0.256653
     13 C                    -0.251298
     14 C                    -0.252524
     15 C                    -0.444085
     16 C                    -0.202678
     17 C                    -0.054482
     18 C                    -0.378154
     19 S                     0.233025
     20 H                     0.146487
     21 H                     0.141701
     22 H                     0.137153
     23 H                     0.130213
     24 H                     0.147129
     25 H                     0.145074
     26 H                     0.141987
     27 H                     0.143941
     28 H                     0.124749
     29 H                     0.130061
     30 H                     0.132392
     31 H                     0.129284
     32 H                     0.129118
     33 H                     0.130177
     34 H                     0.132069
     35 H                     0.127927
     36 H                     0.127337
     37 H                     0.130705
     38 H                     0.125669
     39 H                     0.125111
     40 H                     0.135276
     41 H                     0.130333
     42 H                     0.144017
     43 H                     0.142455
     44 H                     0.142188
     45 H                     0.136310
     46 H                     0.155172
     47 H                     0.143971
  ----------------------------------------
  Sum of atomic charges =     0.000000

 -----------------------------------------------------------------
                    Cartesian Multipole Moments
 -----------------------------------------------------------------
    Charge (ESU x 10^10)
                -0.0000
    Dipole Moment (Debye)
         X       1.2632      Y       0.3540      Z       0.0782
       Tot       1.3142
    Quadrupole Moments (Debye-Ang)
        XX    -128.2404     XY      -0.8317     YY    -119.8697
        XZ       0.8991     YZ       1.6147     ZZ    -130.0650
    Octopole Moments (Debye-Ang^2)
       XXX      -2.6615    XXY       3.4164    XYY     -19.0873
       YYY     -10.1259    XXZ      -9.9910    XYZ      -8.5623
       YYZ      -3.9431    XZZ      15.2522    YZZ       4.5631
       ZZZ      -0.2204
    Hexadecapole Moments (Debye-Ang^3)
      XXXX  -11098.3866   XXXY     -24.0562   XXYY   -2266.1716
      XYYY      39.2313   YYYY   -2919.7975   XXXZ      52.4824
      XXYZ      25.2849   XYYZ       5.3359   YYYZ      42.0912
      XXZZ   -1999.1482   XYZZ      -5.3741   YYZZ    -601.6743
      XZZZ       4.7021   YZZZ     -10.8344   ZZZZ    -431.1494
 -----------------------------------------------------------------
Archival summary:
1\1\nia1977.scinet.local\SP\ProcedureUnspecified\6-31G*\11828\rhickman\MonFeb715:38:522022MonFeb715:38:522022\0\\#,ProcedureUnspecified,6-31G*,\\0,1\S\C,1,1.73715\C,2,1.37174,1,110.465\H,3,1.07556,2,123.031,1,179.936,0\C,3,1.40608,2,114.183,1,0.250376,0\C,5,1.38001,3,112.569,2,-0.440754,0\C,6,1.43616,5,127.87,3,-179.634,0\H,7,1.08208,6,115.178,5,-3.08719,0\C,7,1.33075,6,124.977,5,176.669,0\H,9,1.07553,7,121.722,6,179.957,0\H,9,1.07758,7,121.448,6,-0.166677,0\C,2,1.4379,1,119.33,3,179.88,0\H,12,1.08243,2,114.888,1,-0.00518687,0\C,12,1.3311,2,125.349,1,-179.973,0\H,14,1.07555,12,121.302,2,179.957,0\H,14,1.07611,12,122.208,2,-0.0253849,0\C,5,1.49694,3,122.678,2,-178.143,0\H,17,1.09055,5,108.603,3,-24.0558,0\H,17,1.09224,5,110.391,3,-142.374,0\C,17,1.53368,5,110.705,3,96.4115,0\H,20,1.09112,17,109.183,5,-61.3754,0\H,20,1.09301,17,108.624,5,55.2094,0\C,20,1.52881,17,113.155,5,175.713,0\H,23,1.09294,20,108.261,17,-175.725,0\H,23,1.09335,20,108.724,17,-59.2676,0\C,23,1.5297,20,115.018,17,62.592,0\H,26,1.09164,23,109.904,20,-61.3122,0\H,26,1.09325,23,108.02,20,-177.851,0\C,26,1.52703,23,113.471,20,61.6483,0\H,29,1.09157,26,109.896,23,-65.3347,0\H,29,1.09283,26,109.224,23,52.5718,0\C,29,1.52717,26,111.818,23,173.749,0\H,32,1.09154,29,108.855,26,57.657,0\H,32,1.09286,29,109.374,26,-59.7692,0\C,32,1.52703,29,111.703,26,179.151,0\H,35,1.09133,32,109.46,29,-62.5723,0\H,35,1.09336,32,108.607,29,54.134,0\C,35,1.52947,32,113.544,29,174.386,0\H,38,1.0931,35,108.663,32,-58.9067,0\H,38,1.09316,35,108.411,32,-175.436,0\C,38,1.52974,35,114.995,32,62.8856,0\H,41,1.09122,38,109.79,35,-60.7598,0\H,41,1.09295,38,108.017,35,-177.407,0\C,41,1.52419,38,113.27,35,62.0148,0\H,44,1.08683,41,111.111,38,-66.4097,0\H,44,1.08786,41,110.293,38,173.805,0\H,44,1.08807,41,110.472,38,54.038,0\\\@

 Total job time:  84.27s(wall), 84.04s(cpu) 
 Mon Feb  7 15:38:52 2022

        *************************************************************
        *                                                           *
        *  Thank you very much for using Q-Chem.  Have a nice day.  *
        *                                                           *
        *************************************************************


