20
 energy: -38.948687512304 gnorm: 0.000070901625 xtb: 6.4.1 (23d549d)
C        -1.56717668220000    3.87784822880000    0.09548648460000
C        -0.56206029160000    3.02510148910000   -0.05948570700000
C        -0.64732171350000    1.56832506910000   -0.03532013400000
C        -1.86669918370000    0.89012986270000   -0.02645292000000
C        -1.88025162010000   -0.49188343140000    0.00085034690000
Cl       -3.39694589370000   -1.32535036530000    0.00943818440000
C        -0.70799027770000   -1.22513155360000    0.01966614090000
C         0.52111449770000   -0.56226257480000    0.00594052000000
C         1.72662757000000   -1.37728085830000    0.02339606630000
C         2.99052407730000   -0.98060954790000    0.00040442200000
F         3.45826749000000    0.25990085270000   -0.04515797100000
F         4.01694204870000   -1.82643148970000    0.02010799270000
C         0.53497420520000    0.83013841600000   -0.02448843940000
H        -1.40477801760000    4.94140967570000    0.06740841710000
H        -2.58245725940000    3.56201017850000    0.26281258050000
H         0.43834477310000    3.41210458870000   -0.20656791340000
H        -2.79838449550000    1.43044619340000   -0.04878708180000
H        -0.74700541050000   -2.30275314970000    0.04133769990000
H         1.58345711600000   -2.44750782370000    0.05896878700000
H         1.47277958310000    1.36125316360000   -0.03494406660000
