21
 energy: -34.738627986513 gnorm: 0.000080396760 xtb: 6.4.1 (23d549d)
C         3.10465778060000    1.91042995120000    0.23391858610000
C         1.81234983440000    1.85052469420000   -0.06267984020000
C         0.98036424690000    0.65336639530000   -0.04973385390000
C         1.51517683560000   -0.62931867190000    0.02193637200000
C         0.67615682460000   -1.72390062030000    0.00269570950000
F         1.21367089040000   -2.96462378010000    0.05399267490000
C        -0.69382224350000   -1.59238549000000   -0.07523375350000
C        -1.25888642900000   -0.31983347910000   -0.11619699360000
C        -2.72086836080000   -0.21070257430000   -0.17381963610000
C        -3.46412477800000    0.65906026370000    0.50041936060000
C        -0.41811709500000    0.80223798580000   -0.12432577930000
O        -0.91399722320000    2.06104216490000   -0.23472108900000
H         3.64075894670000    2.84297085760000    0.19789812310000
H         3.67805180570000    1.04910754780000    0.53153806580000
H         1.28250138060000    2.75482098200000   -0.32718052070000
H         2.58035267540000   -0.78077988930000    0.07098690900000
H        -1.32184267670000   -2.46927395000000   -0.08483407780000
H        -3.20453096840000   -0.94703003660000   -0.80406667230000
H        -3.04769840100000    1.36244879720000    1.20429893210000
H        -4.53763899640000    0.66085221140000    0.41520048320000
H        -1.87171883420000    2.01416861870000   -0.36632431030000
