
Running Job 1 of 1 fragments/C116/conf-0/spe_input.inp
qchem fragments/C116/conf-0/spe_input.inp_85124.0 /gpfs/fs0/scratch/a/aspuru/rhickman/descriptor_computation/qchem85124/ 0
/scinet/niagara/software/commercial/qc52/exe/qcprog.exe_s fragments/C116/conf-0/spe_input.inp_85124.0 /gpfs/fs0/scratch/a/aspuru/rhickman/descriptor_computation/qchem85124/
                  Welcome to Q-Chem
     A Quantum Leap Into The Future Of Chemistry


 Q-Chem 5.2, Q-Chem, Inc., Pleasanton, CA (2019)

 License issued to: SRG Alan Aspuru-Guzik, University of Toronto

 Yihan Shao,  Zhengting Gan,  E. Epifanovsky,  A. T. B. Gilbert,  M. Wormit,  
 J. Kussmann,  A. W. Lange,  A. Behn,  Jia Deng,  Xintian Feng,  D. Ghosh,  
 M. Goldey,  P. R. Horn,  L. D. Jacobson,  I. Kaliman,  T. Kus,  A. Landau,  
 Jie Liu,  E. I. Proynov,  R. M. Richard,  R. P. Steele,  E. J. Sundstrom,  
 H. L. Woodcock III,  P. M. Zimmerman,  D. Zuev,  B. Albrecht,  E. Alguire,  
 S. A. Baeppler,  D. Barton,  Z. Benda,  Y. A. Bernard,  E. J. Berquist,  
 K. B. Bravaya,  H. Burton,  D. Casanova,  Chun-Min Chang,  Yunqing Chen,  
 A. Chien,  K. D. Closser,  M. P. Coons,  S. Coriani,  S. Dasgupta,  
 A. L. Dempwolff,  M. Diedenhofen,  Hainam Do,  R. G. Edgar,  Po-Tung Fang,  
 S. Faraji,  S. Fatehi,  Qingguo Feng,  K. D. Fenk,  J. Fosso-Tande,  
 J. Gayvert,  Qinghui Ge,  A. Ghysels,  G. Gidofalvi,  J. Gomes,  
 J. Gonthier,  A. Gunina,  D. Hait,  M. W. D. Hanson-Heine,  
 P. H. P. Harbach,  A. W. Hauser,  M. F. Herbst,  J. E. Herr,  
 E. G. Hohenstein,  Z. C. Holden,  Kerwin Hui,  B. C. Huynh,  T.-C. Jagau,  
 Hyunjun Ji,  B. Kaduk,  K. Khistyaev,  Jaehoon Kim,  P. Klunzinger,  K. Koh,  
 D. Kosenkov,  L. Koulias,  T. Kowalczyk,  C. M. Krauter,  A. Kunitsa,  
 Ka Un Lao,  A. Laurent,  K. V. Lawler,  Joonho Lee,  D. Lefrancois,  
 S. Lehtola,  D. S. Levine,  Yi-Pei Li,  You-Sheng Lin,  Fenglai Liu,  
 E. Livshits,  A. Luenser,  P. Manohar,  E. Mansoor,  S. F. Manzer,  
 Shan-Ping Mao,  Yuezhi Mao,  N. Mardirossian,  A. V. Marenich,  
 T. Markovich,  L. A. Martinez-Martinez,  S. A. Maurer,  N. J. Mayhall,  
 S. C. McKenzie,  J.-M. Mewes,  P. Morgante,  A. F. Morrison,  
 J. W. Mullinax,  K. Nanda,  T. S. Nguyen-Beck,  R. Olivares-Amaya,  
 J. A. Parkhill,  Zheng Pei,  T. M. Perrine,  F. Plasser,  P. Pokhilko,  
 S. Prager,  A. Prociuk,  E. Ramos,  D. R. Rehn,  F. Rob,  M. Scheurer,  
 M. Schneider,  N. Sergueev,  S. M. Sharada,  S. Sharma,  D. W. Small,  
 T. Stauch,  T. Stein,  Yu-Chuan Su,  A. J. W. Thom,  A. Tkatchenko,  
 T. Tsuchimochi,  N. M. Tubman,  L. Vogt,  M. L. Vidal,  O. Vydrov,  
 M. A. Watson,  J. Wenzel,  M. de Wergifosse,  T. A. Wesolowski,  A. White,  
 J. Witte,  A. Yamada,  Jun Yang,  K. Yao,  S. Yeganeh,  S. R. Yost,  
 Zhi-Qiang You,  A. Zech,  Igor Ying Zhang,  Xing Zhang,  Yan Zhao,  
 Ying Zhu,  B. R. Brooks,  G. K. L. Chan,  C. J. Cramer,  M. S. Gordon,  
 W. J. Hehre,  A. Klamt,  M. W. Schmidt,  C. D. Sherrill,  D. G. Truhlar,  
 A. Aspuru-Guzik,  R. Baer,  A. T. Bell,  N. A. Besley,  Jeng-Da Chai,  
 A. E. DePrince, III,  R. A. DiStasio Jr.,  A. Dreuw,  B. D. Dunietz,  
 T. R. Furlani,  Chao-Ping Hsu,  Yousung Jung,  Jing Kong,  D. S. Lambrecht,  
 WanZhen Liang,  C. Ochsenfeld,  V. A. Rassolov,  L. V. Slipchenko,  
 J. E. Subotnik,  T. Van Voorhis,  J. M. Herbert,  A. I. Krylov,  
 P. M. W. Gill,  M. Head-Gordon

 Contributors to earlier versions of Q-Chem not listed above: 
 R. D. Adamson,  B. Austin,  J. Baker,  G. J. O. Beran,  K. Brandhorst,  
 S. T. Brown,  E. F. C. Byrd,  A. K. Chakraborty,  C.-L. Cheng,  
 Siu Hung Chien,  D. M. Chipman,  D. L. Crittenden,  H. Dachsel,  
 R. J. Doerksen,  A. D. Dutoi,  L. Fusti-Molnar,  W. A. Goddard III,  
 A. Golubeva-Zadorozhnaya,  S. R. Gwaltney,  G. Hawkins,  A. Heyden,  
 S. Hirata,  G. Kedziora,  F. J. Keil,  C. Kelley,  Jihan Kim,  R. A. King,  
 R. Z. Khaliullin,  P. P. Korambath,  W. Kurlancheek,  A. M. Lee,  M. S. Lee,  
 S. V. Levchenko,  Ching Yeh Lin,  D. Liotard,  R. C. Lochan,  I. Lotan,  
 P. E. Maslen,  N. Nair,  D. P. O'Neill,  D. Neuhauser,  E. Neuscamman,  
 C. M. Oana,  R. Olson,  B. Peters,  R. Peverati,  P. A. Pieniazek,  
 Y. M. Rhee,  J. Ritchie,  M. A. Rohrdanz,  E. Rosta,  N. J. Russ,  
 H. F. Schaefer III,  N. E. Schultz,  N. Shenvi,  A. C. Simmonett,  A. Sodt,  
 D. Stuck,  K. S. Thanthiriwatte,  V. Vanovschi,  Tao Wang,  A. Warshel,  
 C. F. Williams,  Q. Wu,  X. Xu,  W. Zhang

 Please cite Q-Chem as follows:
 Y. Shao et al., Mol. Phys. 113, 184-215 (2015)
 DOI: 10.1080/00268976.2014.952696

 Q-Chem 5.2.1 for Intel X86 EM64T Linux

 Parts of Q-Chem use Armadillo 8.300.2 (Tropical Shenanigans).
 http://arma.sourceforge.net/

 Q-Chem begins on Mon Feb  7 14:44:13 2022  

Host: 
0

     Scratch files written to /gpfs/fs0/scratch/a/aspuru/rhickman/descriptor_computation/qchem85124//
 Jul1719 |scratch|qcdevops|jenkins|workspace|build_RNUM -1
Processing $rem in /scinet/niagara/software/commercial/qc52/config/preferences:
	 MEM_TOTAL  4000 
NAlpha2: 94
NElect   94
Mult     1

Checking the input file for inconsistencies... 	...done.

--------------------------------------------------------------
User input:
--------------------------------------------------------------
$molecule
0 1
C        -3.88188352120000   -0.53347673940000    0.16022652360000
C        -2.81842947520000    0.10763211820000   -0.30567647350000
C        -1.44283755840000   -0.33100062650000   -0.12660790170000
C        -1.07547996470000   -1.64335592900000   -0.01736757860000
S         0.61338655110000   -1.86736642820000    0.08060987810000
C         0.88272634160000   -0.14813078640000   -0.03114064840000
C         2.23532315280000    0.41780932180000   -0.00411477300000
O         2.45619137410000    1.60061963030000   -0.02913633380000
O         3.25436327470000   -0.46197873970000    0.04306099400000
C        -0.30941868550000    0.54404548560000   -0.12804777860000
C        -0.38522876100000    1.99266342240000   -0.20435205280000
C        -1.32697744680000    2.71951257180000    0.38458504880000
H        -4.87930116740000   -0.17198713060000   -0.01935319710000
H        -3.79730238410000   -1.43053799020000    0.75031671350000
H        -2.93500587570000    1.02469220870000   -0.86771783250000
H        -1.71321137600000   -2.50521146100000   -0.01787270250000
H         2.96455551440000   -1.38370550770000    0.05803412920000
H         0.42427866490000    2.47047343630000   -0.73736221190000
H        -2.10195879140000    2.27868947590000    0.99038632890000
H        -1.33124358350000    3.79282050030000    0.30572390770000
$end

$rem
BASIS = 6-31G*
GUI = 2
METHOD = B3LYP
PRINT_ORBITALS false
MOLDEN_FORMAT false
--------------------------------------------------------------
 ----------------------------------------------------------------
             Standard Nuclear Orientation (Angstroms)
    I     Atom           X                Y                Z
 ----------------------------------------------------------------
    1      C       3.8051114829    -0.6018668572    -0.1441405853
    2      C       2.7479467516     0.0526323674     0.3174373320
    3      C       1.3677423966    -0.3694412504     0.1341147769
    4      C       0.9848286825    -1.6773525834     0.0249977638
    5      S      -0.7062924316    -1.8809227989    -0.0785345432
    6      C      -0.9550861070    -0.1584186121     0.0304807235
    7      C      -2.3006007031     0.4238927250    -0.0017794068
    8      O      -2.5071534799     1.6093273257     0.0212387038
    9      O      -3.3300968404    -0.4434933886    -0.0515226406
   10      C       0.2450498262     0.5193197739     0.1307462268
   11      C       0.3382087852     1.9669917541     0.2057841025
   12      C       1.2907329144     2.6816934399    -0.3806853907
   13      H       4.8062319079    -0.2523327552     0.0384775426
   14      H       3.7116444018    -1.4984791809    -0.7335721203
   15      H       2.8737455535     0.9688223754     0.8789088688
   16      H       1.6120270912    -2.5468960058     0.0285976035
   17      H      -3.0514695026    -1.3686909658    -0.0645309911
   18      H      -0.4672445902     2.4551906508     0.7355115880
   19      H       2.0623613976     2.2308187232    -0.9833608847
   20      H       1.3077810335     3.7549559007    -0.3029406763
 ----------------------------------------------------------------
 Molecular Point Group                 C1    NOp =  1
 Largest Abelian Subgroup              C1    NOp =  1
 Nuclear Repulsion Energy =         753.81865734 hartrees
 There are       47 alpha and       47 beta electrons
 Requested basis set is 6-31G(d)
 There are 65 shells and 200 basis functions

 Total QAlloc Memory Limit   4000 MB
 Mega-Array Size       188 MB
 MEM_STATIC part       192 MB
 A cutoff of  1.0D-08 yielded   1530 shell pairs
 There are     15645 function pairs
 Smallest overlap matrix eigenvalue = 7.14E-04

 Scale SEOQF with 1.000000e-01/1.000000e-01/1.000000e+00

 Standard Electronic Orientation quadrupole field applied
 Nucleus-field energy     =     0.0000000237 hartrees
 Guess from superposition of atomic densities
 Warning:  Energy on first SCF cycle will be non-variational
 SAD guess density has 94.000000 electrons

 -----------------------------------------------------------------------
  General SCF calculation program by
  Eric Jon Sundstrom, Paul Horn, Yuezhi Mao, Dmitri Zuev, Alec White,
  David Stuck, Shaama M.S., Shane Yost, Joonho Lee, David Small,
  Daniel Levine, Susi Lehtola, Hugh Burton, Evgeny Epifanovsky,
  Bang C. Huynh
 -----------------------------------------------------------------------
 Exchange:     0.2000 Hartree-Fock + 0.0800 Slater + 0.7200 B88
 Correlation:  0.1900 VWN1RPA + 0.8100 LYP
 Using SG-1 standard quadrature grid
 A restricted SCF calculation will be
 performed using DIIS
 SCF converges when DIIS error is below 1.0e-05
 ---------------------------------------
  Cycle       Energy         DIIS error
 ---------------------------------------
    1    -899.1473484554      5.74e-02  
    2    -896.0829407554      7.57e-03  
    3    -895.5189837234      1.36e-02  
    4    -896.3178139700      3.00e-03  
    5    -896.3543709051      8.16e-04  
    6    -896.3564320055      3.42e-04  
    7    -896.3569829768      1.03e-04  
    8    -896.3570282588      2.93e-05  
    9    -896.3570322603      1.10e-05  
   10    -896.3570328473      3.28e-06  Convergence criterion met
 ---------------------------------------
 SCF time:   CPU 30.19s  wall 30.00s 
 SCF   energy in the final basis set =     -896.3570328473
 Total energy in the final basis set =     -896.3570328473
 
 --------------------------------------------------------------
 
                    Orbital Energies (a.u.)
 --------------------------------------------------------------
 
 Alpha MOs
 -- Occupied --
-88.9330 -19.1968 -19.1322 -10.3255 -10.2364 -10.2349 -10.2223 -10.2171
-10.2036 -10.1963 -10.1922 -10.1890  -7.9952  -5.9591  -5.9554  -5.9524
 -1.1066  -1.0220  -0.9124  -0.8147  -0.8013  -0.7444  -0.7319  -0.6517
 -0.6266  -0.6087  -0.5977  -0.5387  -0.5183  -0.4886  -0.4622  -0.4585
 -0.4500  -0.4403  -0.4290  -0.4167  -0.4000  -0.3882  -0.3824  -0.3626
 -0.3597  -0.3204  -0.3115  -0.3033  -0.2729  -0.2431  -0.2386
 -- Virtual --
 -0.0677  -0.0264  -0.0103   0.0242   0.0647   0.0686   0.1024   0.1057
  0.1236   0.1469   0.1497   0.1556   0.1608   0.1941   0.2121   0.2131
  0.2322   0.2732   0.2961   0.3113   0.3252   0.3391   0.3401   0.3577
  0.3726   0.3951   0.4140   0.4518   0.4683   0.4946   0.5129   0.5266
  0.5327   0.5397   0.5664   0.5766   0.5866   0.5945   0.5991   0.6071
  0.6259   0.6430   0.6581   0.6751   0.6817   0.6951   0.7074   0.7395
  0.7760   0.7841   0.7895   0.8120   0.8331   0.8395   0.8476   0.8643
  0.8688   0.8793   0.8993   0.9066   0.9216   0.9380   0.9500   0.9568
  0.9658   0.9912   0.9966   1.0239   1.0395   1.0561   1.0704   1.0811
  1.1097   1.1437   1.1628   1.1685   1.2092   1.2159   1.2444   1.2587
  1.3145   1.3655   1.3874   1.3930   1.4112   1.4577   1.4641   1.4928
  1.4965   1.5219   1.5547   1.5959   1.6609   1.6762   1.7107   1.7203
  1.7592   1.7861   1.8197   1.8317   1.8472   1.8506   1.8816   1.8949
  1.9162   1.9682   1.9908   2.0010   2.0194   2.0403   2.0569   2.0866
  2.1264   2.1407   2.2171   2.2249   2.2579   2.2700   2.3062   2.3164
  2.3582   2.4096   2.4309   2.4487   2.4629   2.4934   2.5360   2.5625
  2.6055   2.6423   2.6820   2.7074   2.7570   2.8071   2.8213   2.8618
  2.9258   3.0354   3.0689   3.2094   3.2674   3.8834   3.9383   4.0594
  4.1032   4.1260   4.1582   4.2111   4.2607   4.3490   4.4055   4.5228
  4.6842
 --------------------------------------------------------------
 
          Ground-State Mulliken Net Atomic Charges

     Atom                 Charge (a.u.)
  ----------------------------------------
      1 C                    -0.347634
      2 C                    -0.113248
      3 C                     0.133618
      4 C                    -0.397549
      5 S                     0.247908
      6 C                    -0.325938
      7 C                     0.626394
      8 O                    -0.455862
      9 O                    -0.583557
     10 C                     0.114496
     11 C                    -0.101809
     12 C                    -0.347307
     13 H                     0.150438
     14 H                     0.143095
     15 H                     0.155401
     16 H                     0.185367
     17 H                     0.423163
     18 H                     0.179090
     19 H                     0.159921
     20 H                     0.154012
  ----------------------------------------
  Sum of atomic charges =     0.000000

 -----------------------------------------------------------------
                    Cartesian Multipole Moments
 -----------------------------------------------------------------
    Charge (ESU x 10^10)
                 0.0000
    Dipole Moment (Debye)
         X       3.3738      Y      -2.8659      Z       0.1190
       Tot       4.4283
    Quadrupole Moments (Debye-Ang)
        XX     -79.4638     XY       8.0668     YY     -70.5074
        XZ      -0.8544     YZ       1.4770     ZZ     -77.3931
    Octopole Moments (Debye-Ang^2)
       XXX      29.6437    XXY     -26.8987    XYY       4.9633
       YYY      -6.5864    XXZ      -1.8554    XYZ       0.8059
       YYZ      -0.7591    XZZ     -11.8057    YZZ       2.3637
       ZZZ      -0.1098
    Hexadecapole Moments (Debye-Ang^3)
      XXXX   -1989.8327   XXXY      66.9801   XXYY    -484.6133
      XYYY      21.1958   YYYY    -963.5242   XXXZ      -3.0781
      XXYZ      10.0600   XYYZ      -8.8094   YYYZ       5.3633
      XXZZ    -349.5924   XYZZ      -1.9386   YYZZ    -198.3852
      XZZZ      -0.8007   YZZZ       2.7144   ZZZZ    -103.8386
 -----------------------------------------------------------------
Archival summary:
1\1\nia1977.scinet.local\SP\ProcedureUnspecified\6-31G*\1298\rhickman\MonFeb714:44:432022MonFeb714:44:432022\0\\#,ProcedureUnspecified,6-31G*,\\0,1\S\C,1,1.70647\H,2,1.07215,1,118.894\C,2,1.36717,1,113.361,3,-178.214,0\C,4,1.4319,2,111.962,1,-0.178691,0\C,5,1.38192,4,112.128,2,0.554113,0\C,5,1.45261,4,124.623,2,-178.701,0\H,7,1.0806,5,115.326,4,-146.552,0\C,7,1.32742,5,124.041,4,36.8797,0\H,9,1.07621,7,121.09,5,179.302,0\H,9,1.07792,7,122.377,5,1.47973,0\C,4,1.45489,2,123.593,1,176.161,0\H,12,1.08189,4,114.921,2,-149.513,0\C,12,1.32628,4,124.691,2,30.2701,0\H,14,1.076,12,121.483,4,-178.782,0\H,14,1.07707,12,122.147,4,2.27707,0\C,6,1.46647,5,127.134,4,179.978,0\O,17,1.20352,6,123.241,5,2.12767,0\O,17,1.34711,6,116.508,5,-177.471,0\H,19,0.96633,17,113.367,6,-0.279546,0\\\@

 Total job time:  30.46s(wall), 30.35s(cpu) 
 Mon Feb  7 14:44:43 2022

        *************************************************************
        *                                                           *
        *  Thank you very much for using Q-Chem.  Have a nice day.  *
        *                                                           *
        *************************************************************


