20
 energy: -34.661579827623 gnorm: 0.000140678066 xtb: 6.4.1 (23d549d)
C        -3.88188352120000   -0.53347673940000    0.16022652360000
C        -2.81842947520000    0.10763211820000   -0.30567647350000
C        -1.44283755840000   -0.33100062650000   -0.12660790170000
C        -1.07547996470000   -1.64335592900000   -0.01736757860000
S         0.61338655110000   -1.86736642820000    0.08060987810000
C         0.88272634160000   -0.14813078640000   -0.03114064840000
C         2.23532315280000    0.41780932180000   -0.00411477300000
O         2.45619137410000    1.60061963030000   -0.02913633380000
O         3.25436327470000   -0.46197873970000    0.04306099400000
C        -0.30941868550000    0.54404548560000   -0.12804777860000
C        -0.38522876100000    1.99266342240000   -0.20435205280000
C        -1.32697744680000    2.71951257180000    0.38458504880000
H        -4.87930116740000   -0.17198713060000   -0.01935319710000
H        -3.79730238410000   -1.43053799020000    0.75031671350000
H        -2.93500587570000    1.02469220870000   -0.86771783250000
H        -1.71321137600000   -2.50521146100000   -0.01787270250000
H         2.96455551440000   -1.38370550770000    0.05803412920000
H         0.42427866490000    2.47047343630000   -0.73736221190000
H        -2.10195879140000    2.27868947590000    0.99038632890000
H        -1.33124358350000    3.79282050030000    0.30572390770000
