
Running Job 1 of 1 fragments/C017/conf-0/spe_input.inp
qchem fragments/C017/conf-0/spe_input.inp_23024.0 /gpfs/fs0/scratch/a/aspuru/rhickman/descriptor_computation/qchem23024/ 0
/scinet/niagara/software/commercial/qc52/exe/qcprog.exe_s fragments/C017/conf-0/spe_input.inp_23024.0 /gpfs/fs0/scratch/a/aspuru/rhickman/descriptor_computation/qchem23024/
                  Welcome to Q-Chem
     A Quantum Leap Into The Future Of Chemistry


 Q-Chem 5.2, Q-Chem, Inc., Pleasanton, CA (2019)

 License issued to: SRG Alan Aspuru-Guzik, University of Toronto

 Yihan Shao,  Zhengting Gan,  E. Epifanovsky,  A. T. B. Gilbert,  M. Wormit,  
 J. Kussmann,  A. W. Lange,  A. Behn,  Jia Deng,  Xintian Feng,  D. Ghosh,  
 M. Goldey,  P. R. Horn,  L. D. Jacobson,  I. Kaliman,  T. Kus,  A. Landau,  
 Jie Liu,  E. I. Proynov,  R. M. Richard,  R. P. Steele,  E. J. Sundstrom,  
 H. L. Woodcock III,  P. M. Zimmerman,  D. Zuev,  B. Albrecht,  E. Alguire,  
 S. A. Baeppler,  D. Barton,  Z. Benda,  Y. A. Bernard,  E. J. Berquist,  
 K. B. Bravaya,  H. Burton,  D. Casanova,  Chun-Min Chang,  Yunqing Chen,  
 A. Chien,  K. D. Closser,  M. P. Coons,  S. Coriani,  S. Dasgupta,  
 A. L. Dempwolff,  M. Diedenhofen,  Hainam Do,  R. G. Edgar,  Po-Tung Fang,  
 S. Faraji,  S. Fatehi,  Qingguo Feng,  K. D. Fenk,  J. Fosso-Tande,  
 J. Gayvert,  Qinghui Ge,  A. Ghysels,  G. Gidofalvi,  J. Gomes,  
 J. Gonthier,  A. Gunina,  D. Hait,  M. W. D. Hanson-Heine,  
 P. H. P. Harbach,  A. W. Hauser,  M. F. Herbst,  J. E. Herr,  
 E. G. Hohenstein,  Z. C. Holden,  Kerwin Hui,  B. C. Huynh,  T.-C. Jagau,  
 Hyunjun Ji,  B. Kaduk,  K. Khistyaev,  Jaehoon Kim,  P. Klunzinger,  K. Koh,  
 D. Kosenkov,  L. Koulias,  T. Kowalczyk,  C. M. Krauter,  A. Kunitsa,  
 Ka Un Lao,  A. Laurent,  K. V. Lawler,  Joonho Lee,  D. Lefrancois,  
 S. Lehtola,  D. S. Levine,  Yi-Pei Li,  You-Sheng Lin,  Fenglai Liu,  
 E. Livshits,  A. Luenser,  P. Manohar,  E. Mansoor,  S. F. Manzer,  
 Shan-Ping Mao,  Yuezhi Mao,  N. Mardirossian,  A. V. Marenich,  
 T. Markovich,  L. A. Martinez-Martinez,  S. A. Maurer,  N. J. Mayhall,  
 S. C. McKenzie,  J.-M. Mewes,  P. Morgante,  A. F. Morrison,  
 J. W. Mullinax,  K. Nanda,  T. S. Nguyen-Beck,  R. Olivares-Amaya,  
 J. A. Parkhill,  Zheng Pei,  T. M. Perrine,  F. Plasser,  P. Pokhilko,  
 S. Prager,  A. Prociuk,  E. Ramos,  D. R. Rehn,  F. Rob,  M. Scheurer,  
 M. Schneider,  N. Sergueev,  S. M. Sharada,  S. Sharma,  D. W. Small,  
 T. Stauch,  T. Stein,  Yu-Chuan Su,  A. J. W. Thom,  A. Tkatchenko,  
 T. Tsuchimochi,  N. M. Tubman,  L. Vogt,  M. L. Vidal,  O. Vydrov,  
 M. A. Watson,  J. Wenzel,  M. de Wergifosse,  T. A. Wesolowski,  A. White,  
 J. Witte,  A. Yamada,  Jun Yang,  K. Yao,  S. Yeganeh,  S. R. Yost,  
 Zhi-Qiang You,  A. Zech,  Igor Ying Zhang,  Xing Zhang,  Yan Zhao,  
 Ying Zhu,  B. R. Brooks,  G. K. L. Chan,  C. J. Cramer,  M. S. Gordon,  
 W. J. Hehre,  A. Klamt,  M. W. Schmidt,  C. D. Sherrill,  D. G. Truhlar,  
 A. Aspuru-Guzik,  R. Baer,  A. T. Bell,  N. A. Besley,  Jeng-Da Chai,  
 A. E. DePrince, III,  R. A. DiStasio Jr.,  A. Dreuw,  B. D. Dunietz,  
 T. R. Furlani,  Chao-Ping Hsu,  Yousung Jung,  Jing Kong,  D. S. Lambrecht,  
 WanZhen Liang,  C. Ochsenfeld,  V. A. Rassolov,  L. V. Slipchenko,  
 J. E. Subotnik,  T. Van Voorhis,  J. M. Herbert,  A. I. Krylov,  
 P. M. W. Gill,  M. Head-Gordon

 Contributors to earlier versions of Q-Chem not listed above: 
 R. D. Adamson,  B. Austin,  J. Baker,  G. J. O. Beran,  K. Brandhorst,  
 S. T. Brown,  E. F. C. Byrd,  A. K. Chakraborty,  C.-L. Cheng,  
 Siu Hung Chien,  D. M. Chipman,  D. L. Crittenden,  H. Dachsel,  
 R. J. Doerksen,  A. D. Dutoi,  L. Fusti-Molnar,  W. A. Goddard III,  
 A. Golubeva-Zadorozhnaya,  S. R. Gwaltney,  G. Hawkins,  A. Heyden,  
 S. Hirata,  G. Kedziora,  F. J. Keil,  C. Kelley,  Jihan Kim,  R. A. King,  
 R. Z. Khaliullin,  P. P. Korambath,  W. Kurlancheek,  A. M. Lee,  M. S. Lee,  
 S. V. Levchenko,  Ching Yeh Lin,  D. Liotard,  R. C. Lochan,  I. Lotan,  
 P. E. Maslen,  N. Nair,  D. P. O'Neill,  D. Neuhauser,  E. Neuscamman,  
 C. M. Oana,  R. Olson,  B. Peters,  R. Peverati,  P. A. Pieniazek,  
 Y. M. Rhee,  J. Ritchie,  M. A. Rohrdanz,  E. Rosta,  N. J. Russ,  
 H. F. Schaefer III,  N. E. Schultz,  N. Shenvi,  A. C. Simmonett,  A. Sodt,  
 D. Stuck,  K. S. Thanthiriwatte,  V. Vanovschi,  Tao Wang,  A. Warshel,  
 C. F. Williams,  Q. Wu,  X. Xu,  W. Zhang

 Please cite Q-Chem as follows:
 Y. Shao et al., Mol. Phys. 113, 184-215 (2015)
 DOI: 10.1080/00268976.2014.952696

 Q-Chem 5.2.1 for Intel X86 EM64T Linux

 Parts of Q-Chem use Armadillo 8.300.2 (Tropical Shenanigans).
 http://arma.sourceforge.net/

 Q-Chem begins on Mon Feb  7 12:18:18 2022  

Host: 
0

     Scratch files written to /gpfs/fs0/scratch/a/aspuru/rhickman/descriptor_computation/qchem23024//
 Jul1719 |scratch|qcdevops|jenkins|workspace|build_RNUM -1
Processing $rem in /scinet/niagara/software/commercial/qc52/config/preferences:
	 MEM_TOTAL  4000 
NAlpha2: 166
NElect   166
Mult     1

Checking the input file for inconsistencies... 	...done.

--------------------------------------------------------------
User input:
--------------------------------------------------------------
$molecule
0 1
C        -7.97426116460000   -0.54208162500000   -0.70965487890000
C        -7.13861968740000    0.01348721030000    0.16001397730000
C        -5.68297337380000    0.00821610060000    0.09971830600000
C        -4.96320523890000    0.69468340630000    1.07985238660000
C        -3.58421459910000    0.72897470820000    1.06401400840000
C        -2.87049238770000    0.06895442090000    0.06758850700000
C        -1.39698547810000    0.06946008950000    0.04909460770000
C        -0.73465588730000   -1.15339729280000    0.02769493320000
C         0.64756650320000   -1.25281070360000    0.03253956150000
C         1.28859481090000   -2.60882619530000   -0.00559886380000
C         1.39700609450000   -0.07324493430000    0.04598367500000
C         2.87050995430000   -0.07248673060000    0.06318076080000
C         3.58214887520000    0.63052640410000   -0.90646416000000
C         4.96094419080000    0.65760285130000   -0.89511169100000
C         5.68304091960000   -0.00930605560000    0.09608587120000
C         7.13861720440000   -0.01277056670000    0.15769475730000
C         7.97411766950000    0.57025808480000   -0.69398877760000
C         4.96366457310000   -0.70031627760000    1.07332549740000
C         3.58471944040000   -0.73523827960000    1.05747207370000
C         0.73461351760000    1.14961660670000    0.02753206700000
C        -0.64760783320000    1.24901054610000    0.03559270970000
C        -1.28868747350000    2.60507284710000    0.00066683900000
C        -3.58251434100000   -0.63109785390000   -0.90390632330000
C        -4.96132535440000   -0.65686974560000   -0.89300049790000
H        -9.04095567800000   -0.48169766640000   -0.57714008070000
H        -7.63959000040000   -1.07407469700000   -1.58363783580000
H        -7.54873793760000    0.53831080410000    1.01504930890000
H        -5.49926000500000    1.20920024770000    1.86560309070000
H        -3.04980364460000    1.25439981570000    1.84175075630000
H        -1.32505559650000   -2.05970138530000    0.02143813090000
H         0.67462124710000   -3.29886584430000   -0.58113386050000
H         1.38510371870000   -3.01361450820000    1.00225671080000
H         2.28013490670000   -2.56286480050000   -0.44956279520000
H         3.04000212000000    1.14752913600000   -1.68575640810000
H         5.48253959440000    1.20508180900000   -1.66505733300000
H         7.54892996640000   -0.55935342490000    0.99891499390000
H         7.63948040230000    1.12717964140000   -1.55231205780000
H         9.04074305260000    0.50938512740000   -0.56110361710000
H         5.49998041880000   -1.21696805130000    1.85749544150000
H         3.05069163980000   -1.26337136010000    1.83361011580000
H         1.32495217810000    2.05595278260000    0.02132320900000
H        -0.67793529310000    3.29493462260000   -0.57852078860000
H        -1.37920791950000    3.00993991900000    1.00904744420000
H        -2.28278468270000    2.55925265960000   -0.43754246370000
H        -3.04057617070000   -1.14682151900000   -1.68417633370000
H        -5.48328345510000   -1.20305224800000   -1.66361412350000
$end

$rem
BASIS = 6-31G*
GUI = 2
METHOD = B3LYP
PRINT_ORBITALS false
MOLDEN_FORMAT false
--------------------------------------------------------------
 ----------------------------------------------------------------
             Standard Nuclear Orientation (Angstroms)
    I     Atom           X                Y                Z
 ----------------------------------------------------------------
    1      C      -7.9740756653     0.5450621778     0.7048800913
    2      C      -7.1386202607    -0.0107242810    -0.1648284849
    3      C      -5.6829735086    -0.0060006459    -0.1044980349
    4      C      -4.9634374890    -0.6926306946    -1.0846885462
    5      C      -3.5844600630    -0.7274362266    -1.0688214184
    6      C      -2.8705160490    -0.0677877318    -0.0723086174
    7      C      -1.3970098650    -0.0688430464    -0.0537801366
    8      C      -0.7342263180     1.1537657846    -0.0322342204
    9      C       0.6480330403     1.2526659641    -0.0370357355
   10      C       1.2895644031     2.6084390233     0.0012626598
   11      C       1.3970344806     0.0728231694    -0.0505882801
   12      C       2.8705383613     0.0715191344    -0.0677508112
   13      C       3.5818931096    -0.6318620550     0.9018357080
   14      C       4.9606785332    -0.6594497549     0.8905127551
   15      C       5.6830464236     0.0072966245    -0.1005965626
   16      C       7.1386253457     0.0102267127    -0.1621708639
   17      C       7.9738890023    -0.5732034349     0.6894700030
   18      C       4.9639499679     0.6986785894    -1.0777792517
   19      C       3.5850175372     0.7341114183    -1.0619545093
   20      C       0.7341870076    -1.1497940550    -0.0322829159
   21      C      -0.6480709998    -1.2486733846    -0.0403866697
   22      C      -1.2896554330    -2.6045010409    -0.0056207756
   23      C      -3.5823006349     0.6324253290     0.8992442774
   24      C      -4.9611017171     0.6587108577     0.8883087963
   25      H      -9.0407894279     0.4850888498     0.5723337681
   26      H      -7.6392273738     1.0768374349     1.5789277579
   27      H      -7.5489134144    -0.5353040430    -1.0199295336
   28      H      -5.4996649505    -1.2068643002    -1.8705068267
   29      H      -3.0502261211    -1.2529768222    -1.8466017464
   30      H      -1.3242892826     2.0602885793    -0.0258944491
   31      H       0.6758338015     3.2986453250     0.5768569582
   32      H       1.3862474844     3.0132991253    -1.0065473850
   33      H       2.2810768942     2.5620616607     0.4452449839
   34      H       3.0395358861    -1.1487465118     1.6810599615
   35      H       5.4820522875    -1.2072048060     1.6604121499
   36      H       7.5491610375     0.5567469104    -1.0033230435
   37      H       7.6390245548    -1.1300922846     1.5477259001
   38      H       9.0405400653    -0.5127127243     0.5566164198
   39      H       5.5004762667     1.2152147765    -1.8618813758
   40      H       3.0512043421     1.2625258762    -1.8380486636
   41      H       1.3241886181    -2.0563502424    -0.0261570319
   42      H      -0.6791733367    -3.2946516542     0.5735074867
   43      H      -1.3803026092    -3.0092266923    -1.0140467662
   44      H      -2.2837458608    -2.5583581956     0.4325700539
   45      H      -3.0401891921     1.1478641571     1.6795821315
   46      H      -5.4828749233     1.2050049792     1.6589685128
 ----------------------------------------------------------------
 Molecular Point Group                 C1    NOp =  1
 Largest Abelian Subgroup              C1    NOp =  1
 Nuclear Repulsion Energy =        1768.33641606 hartrees
 There are       83 alpha and       83 beta electrons
 Requested basis set is 6-31G(d)
 There are 140 shells and 404 basis functions

 Total QAlloc Memory Limit   4000 MB
 Mega-Array Size       188 MB
 MEM_STATIC part       192 MB
 A cutoff of  1.0D-08 yielded   4325 shell pairs
 There are     39094 function pairs
 Smallest overlap matrix eigenvalue = 2.82E-04

 Scale SEOQF with 1.000000e-02/1.000000e-01/1.000000e-01

 Standard Electronic Orientation quadrupole field applied
 Nucleus-field energy     =     0.0000000182 hartrees
 Guess from superposition of atomic densities
 Warning:  Energy on first SCF cycle will be non-variational
 SAD guess density has 166.000000 electrons

 -----------------------------------------------------------------------
  General SCF calculation program by
  Eric Jon Sundstrom, Paul Horn, Yuezhi Mao, Dmitri Zuev, Alec White,
  David Stuck, Shaama M.S., Shane Yost, Joonho Lee, David Small,
  Daniel Levine, Susi Lehtola, Hugh Burton, Evgeny Epifanovsky,
  Bang C. Huynh
 -----------------------------------------------------------------------
 Exchange:     0.2000 Hartree-Fock + 0.0800 Slater + 0.7200 B88
 Correlation:  0.1900 VWN1RPA + 0.8100 LYP
 Using SG-1 standard quadrature grid
 A restricted SCF calculation will be
 performed using DIIS
 SCF converges when DIIS error is below 1.0e-05
 ---------------------------------------
  Cycle       Energy         DIIS error
 ---------------------------------------
    1    -933.7098853254      4.08e-02  
    2    -927.4371459777      3.90e-03  
    3    -927.5031903232      3.56e-03  
    4    -927.7843608939      2.80e-04  
    5    -927.7849424820      2.10e-04  
    6    -927.7858514609      5.47e-05  
    7    -927.7859089523      2.40e-05  
    8    -927.7859212012      3.60e-06  Convergence criterion met
 ---------------------------------------
 SCF time:   CPU 106.90s  wall 107.00s 
 SCF   energy in the final basis set =     -927.7859212012
 Total energy in the final basis set =     -927.7859212012
 
 --------------------------------------------------------------
 
                    Orbital Energies (a.u.)
 --------------------------------------------------------------
 
 Alpha MOs
 -- Occupied --
-10.1926 -10.1926 -10.1916 -10.1916 -10.1887 -10.1887 -10.1878 -10.1878
-10.1865 -10.1865 -10.1858 -10.1858 -10.1855 -10.1854 -10.1847 -10.1847
-10.1846 -10.1846 -10.1783 -10.1783 -10.1773 -10.1773 -10.1742 -10.1742
 -0.8772  -0.8662  -0.8516  -0.8091  -0.7904  -0.7819  -0.7586  -0.7487
 -0.7466  -0.7316  -0.7157  -0.7023  -0.6535  -0.6397  -0.6174  -0.6168
 -0.6026  -0.5858  -0.5673  -0.5592  -0.5549  -0.5082  -0.5040  -0.4851
 -0.4816  -0.4703  -0.4620  -0.4544  -0.4460  -0.4382  -0.4288  -0.4254
 -0.4250  -0.4205  -0.4144  -0.4131  -0.4070  -0.4020  -0.3903  -0.3903
 -0.3744  -0.3733  -0.3721  -0.3678  -0.3561  -0.3444  -0.3441  -0.3391
 -0.3371  -0.3273  -0.3214  -0.3016  -0.2943  -0.2522  -0.2521  -0.2500
 -0.2318  -0.2214  -0.2062
 -- Virtual --
 -0.0406  -0.0277  -0.0020   0.0025   0.0076   0.0162   0.0649   0.0724
  0.0988   0.0989   0.1106   0.1141   0.1201   0.1208   0.1285   0.1308
  0.1429   0.1478   0.1588   0.1658   0.1665   0.1694   0.1714   0.1766
  0.1868   0.1912   0.1976   0.2036   0.2126   0.2177   0.2258   0.2344
  0.2376   0.2517   0.2582   0.2596   0.2643   0.2962   0.3006   0.3059
  0.3187   0.3267   0.3298   0.3450   0.3451   0.3594   0.3602   0.3698
  0.3877   0.3943   0.4004   0.4373   0.4384   0.4665   0.4749   0.4874
  0.5096   0.5110   0.5151   0.5199   0.5270   0.5347   0.5364   0.5390
  0.5427   0.5489   0.5528   0.5577   0.5637   0.5697   0.5734   0.5778
  0.5868   0.5878   0.5932   0.5944   0.5948   0.6000   0.6005   0.6032
  0.6081   0.6083   0.6195   0.6223   0.6272   0.6288   0.6334   0.6384
  0.6491   0.6552   0.6688   0.6780   0.6867   0.6927   0.7015   0.7022
  0.7146   0.7165   0.7293   0.7517   0.7546   0.7635   0.7760   0.7851
  0.7922   0.8007   0.8145   0.8240   0.8260   0.8355   0.8373   0.8376
  0.8469   0.8509   0.8574   0.8608   0.8646   0.8784   0.8836   0.8872
  0.8926   0.8961   0.8997   0.9068   0.9099   0.9173   0.9322   0.9326
  0.9497   0.9608   0.9611   0.9698   0.9764   0.9861   0.9872   0.9920
  0.9921   1.0033   1.0088   1.0223   1.0308   1.0335   1.0445   1.0778
  1.1061   1.1122   1.1130   1.1197   1.1462   1.1577   1.1579   1.1769
  1.1842   1.1876   1.2007   1.2208   1.2226   1.2245   1.2318   1.2554
  1.2689   1.2985   1.2992   1.3169   1.3256   1.3268   1.3330   1.3353
  1.3824   1.4195   1.4244   1.4278   1.4404   1.4584   1.4589   1.4600
  1.4612   1.4640   1.4707   1.4922   1.4929   1.4976   1.5091   1.5145
  1.5159   1.5218   1.5244   1.5328   1.5782   1.6181   1.6713   1.6791
  1.6832   1.7217   1.7706   1.7841   1.7862   1.7995   1.8097   1.8164
  1.8210   1.8279   1.8445   1.8446   1.8571   1.8575   1.8838   1.8972
  1.9055   1.9056   1.9301   1.9461   1.9499   1.9684   1.9714   1.9852
  1.9896   1.9914   2.0038   2.0056   2.0168   2.0351   2.0436   2.0530
  2.0614   2.0946   2.1148   2.1172   2.1358   2.1433   2.1528   2.1549
  2.1565   2.1736   2.1760   2.1989   2.2026   2.2263   2.2283   2.2525
  2.2584   2.2617   2.2650   2.2896   2.2961   2.3075   2.3188   2.3241
  2.3342   2.3396   2.3482   2.3572   2.3610   2.3673   2.3934   2.3940
  2.4190   2.4351   2.4425   2.4547   2.4949   2.5231   2.5270   2.5511
  2.5740   2.5884   2.6239   2.6343   2.6544   2.6660   2.6709   2.6829
  2.6911   2.6939   2.7181   2.7367   2.7681   2.7800   2.8026   2.8050
  2.8144   2.8456   2.8753   2.8761   2.9018   2.9341   2.9626   2.9838
  3.0005   3.0477   3.1037   3.1590   3.2100   3.2693   3.4102   3.4668
  3.5234   4.0934   4.0936   4.1290   4.1304   4.1363   4.1425   4.1434
  4.1474   4.1786   4.1822   4.1880   4.2393   4.2658   4.2759   4.2964
  4.3534   4.3578   4.3893   4.4602   4.4817   4.5482   4.7200   4.7674
  4.8472
 --------------------------------------------------------------
 
          Ground-State Mulliken Net Atomic Charges

     Atom                 Charge (a.u.)
  ----------------------------------------
      1 C                    -0.353579
      2 C                    -0.114104
      3 C                     0.183111
      4 C                    -0.204246
      5 C                    -0.161130
      6 C                     0.056099
      7 C                     0.038853
      8 C                    -0.241812
      9 C                     0.144113
     10 C                    -0.533437
     11 C                     0.038898
     12 C                     0.056265
     13 C                    -0.164792
     14 C                    -0.190084
     15 C                     0.183242
     16 C                    -0.113996
     17 C                    -0.353684
     18 C                    -0.204356
     19 C                    -0.161059
     20 C                    -0.241711
     21 C                     0.144192
     22 C                    -0.533472
     23 C                    -0.164661
     24 C                    -0.190062
     25 H                     0.143691
     26 H                     0.142106
     27 H                     0.125955
     28 H                     0.127373
     29 H                     0.132347
     30 H                     0.124250
     31 H                     0.154669
     32 H                     0.160575
     33 H                     0.170322
     34 H                     0.132717
     35 H                     0.126674
     36 H                     0.125901
     37 H                     0.142094
     38 H                     0.143696
     39 H                     0.127378
     40 H                     0.132341
     41 H                     0.124251
     42 H                     0.154702
     43 H                     0.160574
     44 H                     0.170364
     45 H                     0.132732
     46 H                     0.126702
  ----------------------------------------
  Sum of atomic charges =     0.000000

 -----------------------------------------------------------------
                    Cartesian Multipole Moments
 -----------------------------------------------------------------
    Charge (ESU x 10^10)
                 0.0000
    Dipole Moment (Debye)
         X      -0.0014      Y      -0.0001      Z      -0.1123
       Tot       0.1123
    Quadrupole Moments (Debye-Ang)
        XX    -131.1255     XY       0.5700     YY    -137.2749
        XZ      -0.0030     YZ      -0.0320     ZZ    -136.3772
    Octopole Moments (Debye-Ang^2)
       XXX      -0.0939    XXY      -0.1137    XYY       0.5895
       YYY      -0.0076    XXZ      -5.7799    XYZ     -43.3663
       YYZ       0.9354    XZZ      -0.5874    YZZ      -0.0157
       ZZZ      -0.9816
    Hexadecapole Moments (Debye-Ang^3)
      XXXX  -15856.5988   XXXY      -9.0844   XXYY   -3150.6694
      XYYY       4.1256   YYYY   -1214.2605   XXXZ      -1.1994
      XXYZ      -1.9146   XYYZ       0.5407   YYYZ      -0.2391
      XXZZ   -2832.0598   XYZZ      -4.6713   YYZZ    -280.9828
      XZZZ      -0.4312   YZZZ       0.1022   ZZZZ    -559.3882
 -----------------------------------------------------------------
Archival summary:
1\1\nia1977.scinet.local\SP\ProcedureUnspecified\6-31G*\2422\rhickman\MonFeb712:20:052022MonFeb712:20:052022\0\\#,ProcedureUnspecified,6-31G*,\\0,1\C\C,1,1.39087\H,2,1.08166,1,118.479\C,2,1.3858,1,122.547,3,-179.098,0\C,1,1.39753,2,119.116,3,-178.976,0\C,5,1.38581,1,118.317,2,-1.23723,0\H,6,1.08166,5,118.966,1,-179.742,0\C,6,1.39086,5,122.547,1,-0.665273,0\C,8,1.4736,6,118.419,5,-178.77,0\C,9,1.3921,8,121.406,6,124.428,0\H,10,1.08005,9,119.498,8,0.0841288,0\C,10,1.37948,9,120.597,8,-178.637,0\H,12,1.08143,10,119.471,9,179.653,0\C,9,1.39315,8,120.193,6,-53.799,0\H,14,1.08098,9,119.138,8,-1.87721,0\C,14,1.37911,9,120.989,8,179.096,0\H,16,1.07917,14,119.164,9,179.521,0\C,16,1.39595,14,120.906,9,-0.579493,0\C,18,1.45688,16,123.229,14,-179.913,0\H,19,1.08386,18,114.346,16,178.814,0\C,19,1.32791,18,126.902,16,-1.29589,0\H,21,1.0765,19,122.884,18,-0.0321265,0\H,21,1.07659,19,121.29,18,-179.976,0\C,1,1.47362,2,118.428,3,0.239313,0\C,24,1.39208,1,121.432,2,124.384,0\H,25,1.08007,24,119.498,1,0.0368402,0\C,25,1.37951,24,120.593,1,-178.683,0\H,27,1.08143,25,119.474,24,179.657,0\C,24,1.39314,1,120.164,2,-53.8664,0\H,29,1.08097,24,119.135,1,-1.78685,0\C,29,1.37909,24,120.988,1,179.182,0\H,31,1.07917,29,119.168,24,179.598,0\C,31,1.39592,29,120.903,24,-0.591483,0\C,33,1.4569,31,123.208,29,-179.959,0\H,34,1.08385,33,114.36,31,177.453,0\C,34,1.32788,33,126.88,31,-2.82675,0\H,36,1.07651,34,122.877,33,-0.0287602,0\H,36,1.07659,34,121.295,33,-179.896,0\C,5,1.50037,1,122.273,2,177.454,0\H,39,1.08736,5,111.219,1,-24.861,0\H,39,1.08829,5,110.214,1,-145.846,0\H,39,1.09039,5,110.459,1,95.3095,0\C,4,1.50038,2,119.399,1,-179.389,0\H,43,1.08737,4,111.209,2,153.594,0\H,43,1.08828,4,110.21,2,32.616,0\H,43,1.09039,4,110.477,2,-86.2356,0\\\@

 Total job time:  107.60s(wall), 107.31s(cpu) 
 Mon Feb  7 12:20:05 2022

        *************************************************************
        *                                                           *
        *  Thank you very much for using Q-Chem.  Have a nice day.  *
        *                                                           *
        *************************************************************


