
Running Job 1 of 1 fragments/A019/conf-1/spe_input.inp
qchem fragments/A019/conf-1/spe_input.inp_169814.0 /gpfs/fs0/scratch/a/aspuru/rhickman/descriptor_computation/qchem169814/ 0
/scinet/niagara/software/commercial/qc52/exe/qcprog.exe_s fragments/A019/conf-1/spe_input.inp_169814.0 /gpfs/fs0/scratch/a/aspuru/rhickman/descriptor_computation/qchem169814/
                  Welcome to Q-Chem
     A Quantum Leap Into The Future Of Chemistry


 Q-Chem 5.2, Q-Chem, Inc., Pleasanton, CA (2019)

 License issued to: SRG Alan Aspuru-Guzik, University of Toronto

 Yihan Shao,  Zhengting Gan,  E. Epifanovsky,  A. T. B. Gilbert,  M. Wormit,  
 J. Kussmann,  A. W. Lange,  A. Behn,  Jia Deng,  Xintian Feng,  D. Ghosh,  
 M. Goldey,  P. R. Horn,  L. D. Jacobson,  I. Kaliman,  T. Kus,  A. Landau,  
 Jie Liu,  E. I. Proynov,  R. M. Richard,  R. P. Steele,  E. J. Sundstrom,  
 H. L. Woodcock III,  P. M. Zimmerman,  D. Zuev,  B. Albrecht,  E. Alguire,  
 S. A. Baeppler,  D. Barton,  Z. Benda,  Y. A. Bernard,  E. J. Berquist,  
 K. B. Bravaya,  H. Burton,  D. Casanova,  Chun-Min Chang,  Yunqing Chen,  
 A. Chien,  K. D. Closser,  M. P. Coons,  S. Coriani,  S. Dasgupta,  
 A. L. Dempwolff,  M. Diedenhofen,  Hainam Do,  R. G. Edgar,  Po-Tung Fang,  
 S. Faraji,  S. Fatehi,  Qingguo Feng,  K. D. Fenk,  J. Fosso-Tande,  
 J. Gayvert,  Qinghui Ge,  A. Ghysels,  G. Gidofalvi,  J. Gomes,  
 J. Gonthier,  A. Gunina,  D. Hait,  M. W. D. Hanson-Heine,  
 P. H. P. Harbach,  A. W. Hauser,  M. F. Herbst,  J. E. Herr,  
 E. G. Hohenstein,  Z. C. Holden,  Kerwin Hui,  B. C. Huynh,  T.-C. Jagau,  
 Hyunjun Ji,  B. Kaduk,  K. Khistyaev,  Jaehoon Kim,  P. Klunzinger,  K. Koh,  
 D. Kosenkov,  L. Koulias,  T. Kowalczyk,  C. M. Krauter,  A. Kunitsa,  
 Ka Un Lao,  A. Laurent,  K. V. Lawler,  Joonho Lee,  D. Lefrancois,  
 S. Lehtola,  D. S. Levine,  Yi-Pei Li,  You-Sheng Lin,  Fenglai Liu,  
 E. Livshits,  A. Luenser,  P. Manohar,  E. Mansoor,  S. F. Manzer,  
 Shan-Ping Mao,  Yuezhi Mao,  N. Mardirossian,  A. V. Marenich,  
 T. Markovich,  L. A. Martinez-Martinez,  S. A. Maurer,  N. J. Mayhall,  
 S. C. McKenzie,  J.-M. Mewes,  P. Morgante,  A. F. Morrison,  
 J. W. Mullinax,  K. Nanda,  T. S. Nguyen-Beck,  R. Olivares-Amaya,  
 J. A. Parkhill,  Zheng Pei,  T. M. Perrine,  F. Plasser,  P. Pokhilko,  
 S. Prager,  A. Prociuk,  E. Ramos,  D. R. Rehn,  F. Rob,  M. Scheurer,  
 M. Schneider,  N. Sergueev,  S. M. Sharada,  S. Sharma,  D. W. Small,  
 T. Stauch,  T. Stein,  Yu-Chuan Su,  A. J. W. Thom,  A. Tkatchenko,  
 T. Tsuchimochi,  N. M. Tubman,  L. Vogt,  M. L. Vidal,  O. Vydrov,  
 M. A. Watson,  J. Wenzel,  M. de Wergifosse,  T. A. Wesolowski,  A. White,  
 J. Witte,  A. Yamada,  Jun Yang,  K. Yao,  S. Yeganeh,  S. R. Yost,  
 Zhi-Qiang You,  A. Zech,  Igor Ying Zhang,  Xing Zhang,  Yan Zhao,  
 Ying Zhu,  B. R. Brooks,  G. K. L. Chan,  C. J. Cramer,  M. S. Gordon,  
 W. J. Hehre,  A. Klamt,  M. W. Schmidt,  C. D. Sherrill,  D. G. Truhlar,  
 A. Aspuru-Guzik,  R. Baer,  A. T. Bell,  N. A. Besley,  Jeng-Da Chai,  
 A. E. DePrince, III,  R. A. DiStasio Jr.,  A. Dreuw,  B. D. Dunietz,  
 T. R. Furlani,  Chao-Ping Hsu,  Yousung Jung,  Jing Kong,  D. S. Lambrecht,  
 WanZhen Liang,  C. Ochsenfeld,  V. A. Rassolov,  L. V. Slipchenko,  
 J. E. Subotnik,  T. Van Voorhis,  J. M. Herbert,  A. I. Krylov,  
 P. M. W. Gill,  M. Head-Gordon

 Contributors to earlier versions of Q-Chem not listed above: 
 R. D. Adamson,  B. Austin,  J. Baker,  G. J. O. Beran,  K. Brandhorst,  
 S. T. Brown,  E. F. C. Byrd,  A. K. Chakraborty,  C.-L. Cheng,  
 Siu Hung Chien,  D. M. Chipman,  D. L. Crittenden,  H. Dachsel,  
 R. J. Doerksen,  A. D. Dutoi,  L. Fusti-Molnar,  W. A. Goddard III,  
 A. Golubeva-Zadorozhnaya,  S. R. Gwaltney,  G. Hawkins,  A. Heyden,  
 S. Hirata,  G. Kedziora,  F. J. Keil,  C. Kelley,  Jihan Kim,  R. A. King,  
 R. Z. Khaliullin,  P. P. Korambath,  W. Kurlancheek,  A. M. Lee,  M. S. Lee,  
 S. V. Levchenko,  Ching Yeh Lin,  D. Liotard,  R. C. Lochan,  I. Lotan,  
 P. E. Maslen,  N. Nair,  D. P. O'Neill,  D. Neuhauser,  E. Neuscamman,  
 C. M. Oana,  R. Olson,  B. Peters,  R. Peverati,  P. A. Pieniazek,  
 Y. M. Rhee,  J. Ritchie,  M. A. Rohrdanz,  E. Rosta,  N. J. Russ,  
 H. F. Schaefer III,  N. E. Schultz,  N. Shenvi,  A. C. Simmonett,  A. Sodt,  
 D. Stuck,  K. S. Thanthiriwatte,  V. Vanovschi,  Tao Wang,  A. Warshel,  
 C. F. Williams,  Q. Wu,  X. Xu,  W. Zhang

 Please cite Q-Chem as follows:
 Y. Shao et al., Mol. Phys. 113, 184-215 (2015)
 DOI: 10.1080/00268976.2014.952696

 Q-Chem 5.2.1 for Intel X86 EM64T Linux

 Parts of Q-Chem use Armadillo 8.300.2 (Tropical Shenanigans).
 http://arma.sourceforge.net/

 Q-Chem begins on Mon Feb  7 18:37:11 2022  

Host: 
0

     Scratch files written to /gpfs/fs0/scratch/a/aspuru/rhickman/descriptor_computation/qchem169814//
 Jul1719 |scratch|qcdevops|jenkins|workspace|build_RNUM -1
Processing $rem in /scinet/niagara/software/commercial/qc52/config/preferences:
	 MEM_TOTAL  4000 
NAlpha2: 190
NElect   190
Mult     1

Checking the input file for inconsistencies... 	...done.

--------------------------------------------------------------
User input:
--------------------------------------------------------------
$molecule
0 1
C        -5.25233734720000   -4.09799918670000    0.28047442120000
O        -3.87201861620000   -4.35801308950000    0.23623694200000
C        -3.01637973030000   -3.29549515310000    0.14968293280000
C        -3.40669769120000   -1.96756470150000    0.10134764220000
C        -2.41934827760000   -0.99279000270000    0.00718563230000
C        -2.47513878550000    0.44165437890000   -0.03372684460000
C        -3.52117455090000    1.34842403860000   -0.03344211550000
C        -3.23583428970000    2.70719740520000   -0.11108078410000
O        -4.32242573160000    3.53819830140000   -0.09645917470000
C        -4.11333591630000    4.92527905620000   -0.17553364100000
C        -1.91133548340000    3.14260289710000   -0.20898018020000
C        -0.85761096850000    2.24529157280000   -0.21114593210000
C        -1.13681326430000    0.89392116470000   -0.10224260970000
N        -0.28397050670000   -0.19675063850000   -0.11302280790000
C         1.10775193070000   -0.14846855430000   -0.17633822330000
C         1.82522871850000    0.71554408070000    0.65062520540000
C         3.20143385280000    0.76704665120000    0.58829023520000
C         3.90738618120000   -0.04918916580000   -0.29921745970000
C         5.35484434270000   -0.04931049620000   -0.41416423800000
C         6.23654783180000    0.68814088150000    0.24577956430000
F         6.00391725840000    1.60920897450000    1.17435341870000
F         7.55168722400000    0.59718250000000    0.05052768820000
C         3.18011814830000   -0.91468661500000   -1.12156205100000
C         1.80444522200000   -0.96446631760000   -1.06741845210000
C        -1.05537964310000   -1.34520534410000   -0.04844482200000
C        -0.66860658500000   -2.67667909510000    0.03146761960000
C        -1.65435167030000   -3.63396301180000    0.12402476500000
H        -5.73470799080000   -5.07218204910000    0.34453297640000
H        -5.59469384320000   -3.58410293830000   -0.62404249870000
H        -5.52208671470000   -3.50309535190000    1.15954677970000
H        -4.44165149120000   -1.66997601070000    0.14160465370000
H        -4.54914964880000    1.02901039240000    0.01941618840000
H        -5.10485235030000    5.37433497150000   -0.13871983240000
H        -3.62520473880000    5.20827813240000   -1.11429718700000
H        -3.52002334280000    5.29381887950000    0.66809906180000
H        -1.68754408710000    4.19419119000000   -0.29091689050000
H         0.15494549990000    2.60531652600000   -0.31020503410000
H         1.29434699860000    1.33183210170000    1.35996438920000
H         3.72748222970000    1.44017841230000    1.24490285060000
H         5.78088891220000   -0.73740586900000   -1.13024961790000
H         3.70648967700000   -1.54883869940000   -1.81985654860000
H         1.25724623010000   -1.61965363340000   -1.72780430170000
H         0.37175775900000   -2.96254195550000    0.03749386340000
H        -1.39952689030000   -4.67992987500000    0.18532881750000
$end

$rem
BASIS = 6-31G*
GUI = 2
METHOD = B3LYP
PRINT_ORBITALS false
MOLDEN_FORMAT false
--------------------------------------------------------------
 ----------------------------------------------------------------
             Standard Nuclear Orientation (Angstroms)
    I     Atom           X                Y                Z
 ----------------------------------------------------------------
    1      C       5.6070783442     3.4434917945     0.3154223474
    2      O       4.2687308786     3.8682841173     0.2586638492
    3      C       3.2915552822     2.9166111893     0.1692191366
    4      C       3.5187497095     1.5510042822     0.1294175952
    5      C       2.4215069652     0.7023184599     0.0309198937
    6      C       2.3036989927    -0.7285314760    -0.0038196812
    7      C       3.2323406828    -1.7551219544     0.0087787466
    8      C       2.7853556608    -3.0697893829    -0.0658257554
    9      O       3.7633072008    -4.0260009723    -0.0388549502
   10      C       3.3885976602    -5.3779950807    -0.1141479342
   11      C       1.4187185579    -3.3423207118    -0.1730126287
   12      C       0.4813153931    -2.3241986432    -0.1875183639
   13      C       0.9210690025    -1.0159826127    -0.0816721730
   14      N       0.2065218043     0.1697452923    -0.1038893076
   15      C      -1.1802872781     0.2897920521    -0.1785933146
   16      C      -2.0034167777    -0.4770140308     0.6458007326
   17      C      -3.3752201290    -0.3620355870     0.5722190928
   18      C      -3.9703330734     0.5291665281    -0.3243738365
   19      C      -5.4062105126     0.7037446441    -0.4513634693
   20      C      -6.3757479569     0.0816002249     0.2041476787
   21      F      -6.2634667913    -0.8562258222     1.1382826068
   22      F      -7.6686699960     0.3299496984    -0.0024037269
   23      C      -3.1373408569     1.2962854396    -1.1440736570
   24      C      -1.7662104465     1.1796205512    -1.0786806153
   25      C       1.1106542602     1.2167995318    -0.0374626234
   26      C       0.8871614901     2.5856515335     0.0339301330
   27      C       1.9807085962     3.4171611767     0.1308792710
   28      H       6.2032280158     4.3525032174     0.3796172675
   29      H       5.8917894827     2.8874922477    -0.5841621425
   30      H       5.7960415127     2.8246988994     1.1990692109
   31      H       4.5097645681     1.1306553185     0.1794707944
   32      H       4.2909607352    -1.5620973377     0.0689199270
   33      H       4.3182012367    -5.9434625553    -0.0672967232
   34      H       2.8771390563    -5.6045413434    -1.0558083859
   35      H       2.7485179461    -5.6679015493     0.7259769063
   36      H       1.0700181177    -4.3595247487    -0.2526248250
   37      H      -0.5665524323    -2.5596294571    -0.2935684779
   38      H      -1.5565124044    -1.1494513487     1.3619801360
   39      H      -3.9839187979    -0.9633556446     1.2271034399
   40      H      -5.7403126055     1.4347511261    -1.1737018965
   41      H      -3.5776934517     1.9859648778    -1.8492423762
   42      H      -1.1386582396     1.7605518165    -1.7370906080
   43      H      -0.1110024593     2.9952444703     0.0301598377
   44      H       1.8538021413     4.4865573473     0.1858985066
 ----------------------------------------------------------------
 Molecular Point Group                 C1    NOp =  1
 Largest Abelian Subgroup              C1    NOp =  1
 Nuclear Repulsion Energy =        2263.17844652 hartrees
 There are       95 alpha and       95 beta electrons
 Requested basis set is 6-31G(d)
 There are 142 shells and 439 basis functions

 Total QAlloc Memory Limit   4000 MB
 Mega-Array Size       188 MB
 MEM_STATIC part       192 MB
 A cutoff of  1.0D-08 yielded   4216 shell pairs
 There are     43910 function pairs
 Smallest overlap matrix eigenvalue = 2.56E-04

 Scale SEOQF with 1.000000e-02/1.000000e-02/1.000000e-01

 Standard Electronic Orientation quadrupole field applied
 Nucleus-field energy     =     0.0000000122 hartrees
 Guess from superposition of atomic densities
 Warning:  Energy on first SCF cycle will be non-variational
 SAD guess density has 190.000000 electrons

 -----------------------------------------------------------------------
  General SCF calculation program by
  Eric Jon Sundstrom, Paul Horn, Yuezhi Mao, Dmitri Zuev, Alec White,
  David Stuck, Shaama M.S., Shane Yost, Joonho Lee, David Small,
  Daniel Levine, Susi Lehtola, Hugh Burton, Evgeny Epifanovsky,
  Bang C. Huynh
 -----------------------------------------------------------------------
 Exchange:     0.2000 Hartree-Fock + 0.0800 Slater + 0.7200 B88
 Correlation:  0.1900 VWN1RPA + 0.8100 LYP
 Using SG-1 standard quadrature grid
 A restricted SCF calculation will be
 performed using DIIS
 SCF converges when DIIS error is below 1.0e-05
 ---------------------------------------
  Cycle       Energy         DIIS error
 ---------------------------------------
    1   -1260.4096340342      3.97e-02  
    2   -1253.0763894128      3.78e-03  
    3   -1252.9031747167      4.69e-03  
    4   -1253.3957731177      1.12e-03  
    5   -1253.4237499787      3.71e-04  
    6   -1253.4262487398      2.07e-04  
    7   -1253.4273560465      4.72e-05  
    8   -1253.4273994101      2.17e-05  
    9   -1253.4274111467      4.03e-06  Convergence criterion met
 ---------------------------------------
 SCF time:   CPU 139.57s  wall 140.00s 
 SCF   energy in the final basis set =    -1253.4274111467
 Total energy in the final basis set =    -1253.4274111467
 
 --------------------------------------------------------------
 
                    Orbital Energies (a.u.)
 --------------------------------------------------------------
 
 Alpha MOs
 -- Occupied --
-24.7470 -24.7361 -19.1689 -19.1685 -14.3784 -10.3590 -10.2362 -10.2361
-10.2353 -10.2350 -10.2340 -10.2150 -10.2148 -10.2100 -10.2061 -10.1981
-10.1957 -10.1957 -10.1951 -10.1864 -10.1861 -10.1842 -10.1836 -10.1828
-10.1811 -10.1794 -10.1778  -1.2875  -1.2266  -1.0588  -1.0584  -0.9975
 -0.8792  -0.8499  -0.8460  -0.8115  -0.7829  -0.7642  -0.7570  -0.7510
 -0.7332  -0.7216  -0.6954  -0.6879  -0.6499  -0.6366  -0.6274  -0.6159
 -0.5917  -0.5814  -0.5797  -0.5737  -0.5447  -0.5379  -0.5266  -0.5212
 -0.5190  -0.5042  -0.4906  -0.4819  -0.4657  -0.4647  -0.4644  -0.4617
 -0.4549  -0.4457  -0.4431  -0.4381  -0.4366  -0.4328  -0.4226  -0.4191
 -0.4157  -0.4136  -0.4094  -0.4007  -0.3906  -0.3816  -0.3779  -0.3685
 -0.3600  -0.3566  -0.3515  -0.3461  -0.3255  -0.3170  -0.3148  -0.3094
 -0.2874  -0.2700  -0.2637  -0.2323  -0.2272  -0.2032  -0.1779
 -- Virtual --
 -0.0345  -0.0252  -0.0095   0.0195   0.0390   0.0518   0.0673   0.0827
  0.0980   0.1035   0.1141   0.1160   0.1190   0.1360   0.1390   0.1470
  0.1518   0.1553   0.1577   0.1597   0.1618   0.1694   0.1723   0.1740
  0.1778   0.1860   0.1945   0.1983   0.2010   0.2078   0.2093   0.2135
  0.2343   0.2522   0.2711   0.2769   0.2789   0.2882   0.3000   0.3100
  0.3211   0.3321   0.3461   0.3538   0.3682   0.3951   0.3977   0.4062
  0.4106   0.4226   0.4613   0.4747   0.4784   0.4895   0.4946   0.5061
  0.5111   0.5225   0.5256   0.5288   0.5327   0.5340   0.5358   0.5410
  0.5492   0.5528   0.5547   0.5597   0.5630   0.5666   0.5683   0.5745
  0.5807   0.5828   0.5847   0.5863   0.5915   0.5940   0.5977   0.6036
  0.6192   0.6216   0.6260   0.6272   0.6325   0.6395   0.6443   0.6546
  0.6571   0.6604   0.6715   0.6840   0.6995   0.7182   0.7268   0.7306
  0.7450   0.7503   0.7546   0.7738   0.7889   0.7971   0.8048   0.8179
  0.8242   0.8295   0.8356   0.8418   0.8477   0.8496   0.8544   0.8545
  0.8602   0.8689   0.8755   0.8780   0.8805   0.8876   0.8950   0.9041
  0.9132   0.9174   0.9360   0.9396   0.9452   0.9473   0.9570   0.9760
  0.9806   0.9835   0.9908   0.9987   1.0053   1.0207   1.0260   1.0357
  1.0589   1.0608   1.0688   1.0756   1.0770   1.1013   1.1114   1.1284
  1.1359   1.1512   1.1563   1.1582   1.1673   1.1846   1.1864   1.2021
  1.2120   1.2192   1.2291   1.2397   1.2479   1.2673   1.2690   1.2738
  1.2859   1.3053   1.3332   1.3347   1.3390   1.3496   1.3664   1.3800
  1.3846   1.3857   1.3894   1.4015   1.4048   1.4345   1.4392   1.4427
  1.4444   1.4611   1.4623   1.4688   1.4789   1.4851   1.4877   1.4943
  1.5015   1.5096   1.5270   1.5297   1.5421   1.5580   1.5855   1.6166
  1.6293   1.6470   1.6787   1.7062   1.7115   1.7267   1.7333   1.7609
  1.7764   1.7800   1.7823   1.7853   1.7922   1.8120   1.8175   1.8342
  1.8356   1.8513   1.8588   1.8667   1.8730   1.8790   1.8912   1.8966
  1.9002   1.9075   1.9219   1.9276   1.9300   1.9368   1.9679   1.9777
  1.9851   1.9898   2.0025   2.0100   2.0134   2.0239   2.0326   2.0348
  2.0459   2.0630   2.0717   2.0737   2.0796   2.0992   2.1038   2.1187
  2.1226   2.1264   2.1386   2.1441   2.1502   2.1524   2.1574   2.1780
  2.2075   2.2195   2.2290   2.2350   2.2358   2.2468   2.2502   2.2737
  2.2774   2.2850   2.2951   2.2992   2.3187   2.3345   2.3506   2.3543
  2.3600   2.3646   2.3790   2.4119   2.4285   2.4392   2.4713   2.4878
  2.5140   2.5208   2.5261   2.5516   2.5568   2.5806   2.5910   2.6078
  2.6115   2.6333   2.6399   2.6529   2.6648   2.6746   2.6812   2.6978
  2.7050   2.7343   2.7422   2.7539   2.7731   2.7740   2.8047   2.8084
  2.8192   2.8609   2.8784   2.8933   2.9091   2.9331   2.9572   2.9759
  2.9983   3.0070   3.0555   3.1284   3.1421   3.1474   3.1977   3.2847
  3.3122   3.3951   3.4153   3.4982   3.5792   4.0620   4.0689   4.0741
  4.1033   4.1095   4.1234   4.1373   4.1427   4.1720   4.1910   4.2316
  4.2367   4.2867   4.2919   4.3258   4.3462   4.3748   4.4087   4.4837
  4.5288   4.5724   4.5868   4.7326   4.8118   4.8458   4.9137   5.2854
 --------------------------------------------------------------
 
          Ground-State Mulliken Net Atomic Charges

     Atom                 Charge (a.u.)
  ----------------------------------------
      1 C                    -0.208978
      2 O                    -0.513205
      3 C                     0.370418
      4 C                    -0.274492
      5 C                     0.052294
      6 C                     0.073802
      7 C                    -0.267498
      8 C                     0.377629
      9 O                    -0.514199
     10 C                    -0.210827
     11 C                    -0.211045
     12 C                    -0.182373
     13 C                     0.313340
     14 N                    -0.743218
     15 C                     0.295670
     16 C                    -0.164205
     17 C                    -0.208954
     18 C                     0.203432
     19 C                    -0.299534
     20 C                     0.543192
     21 F                    -0.235199
     22 F                    -0.248065
     23 C                    -0.208842
     24 C                    -0.164765
     25 C                     0.307596
     26 C                    -0.173125
     27 C                    -0.184819
     28 H                     0.166190
     29 H                     0.147720
     30 H                     0.147920
     31 H                     0.132430
     32 H                     0.132230
     33 H                     0.166009
     34 H                     0.146995
     35 H                     0.146627
     36 H                     0.127621
     37 H                     0.141160
     38 H                     0.152920
     39 H                     0.143863
     40 H                     0.160476
     41 H                     0.133920
     42 H                     0.153457
     43 H                     0.141560
     44 H                     0.134870
  ----------------------------------------
  Sum of atomic charges =     0.000000

 -----------------------------------------------------------------
                    Cartesian Multipole Moments
 -----------------------------------------------------------------
    Charge (ESU x 10^10)
                 0.0000
    Dipole Moment (Debye)
         X       0.1693      Y      -1.0129      Z      -0.5763
       Tot       1.1776
    Quadrupole Moments (Debye-Ang)
        XX    -145.4454     XY      -2.7451     YY    -138.2624
        XZ       3.6784     YZ      -2.8108     ZZ    -153.8035
    Octopole Moments (Debye-Ang^2)
       XXX      88.5920    XXY      46.4552    XYY      -2.9174
       YYY    -110.7159    XXZ      -7.4112    XYZ      13.9374
       YYZ      -4.8230    XZZ     -36.4475    YZZ       0.8833
       ZZZ       9.4733
    Hexadecapole Moments (Debye-Ang^3)
      XXXX  -11808.7789   XXXY     278.7728   XXYY   -2662.4825
      XYYY    -281.9162   YYYY   -4737.7320   XXXZ      89.8661
      XXYZ     -14.7245   XYYZ      -2.3524   YYYZ       7.4348
      XXZZ   -2035.2592   XYZZ      -5.9207   YYZZ    -961.1936
      XZZZ     -50.7971   YZZZ     -18.4601   ZZZZ    -369.7502
 -----------------------------------------------------------------
Archival summary:
1\1\nia1977.scinet.local\SP\ProcedureUnspecified\6-31G*\2212217\rhickman\MonFeb718:39:312022MonFeb718:39:312022\0\\#,ProcedureUnspecified,6-31G*,\\0,1\N\C,1,1.38457\C,2,1.3842,1,130.105\H,3,1.07921,2,121.477,1,-0.978613,0\C,3,1.38402,2,118.638,1,178.175,0\H,5,1.07826,3,118.305,2,179.808,0\C,1,1.38499,2,108.045,3,-176.674,0\C,7,1.38881,1,129.982,2,-176.594,0\H,8,1.07894,7,121.525,1,-0.926624,0\C,8,1.37719,7,118.095,1,178.113,0\H,10,1.0783,8,120.592,7,179.826,0\C,1,1.394,2,126.017,3,3.38769,0\C,12,1.39469,1,120.539,2,47.0644,0\H,13,1.07926,12,119.368,1,1.48661,0\C,13,1.37858,12,120.656,1,-179.88,0\H,15,1.07748,13,118.892,12,-179.594,0\C,12,1.39473,1,120.495,2,-132.979,0\H,17,1.07926,12,119.527,1,1.47034,0\C,17,1.37764,12,120.184,1,-179.787,0\H,19,1.0802,17,119.392,12,-179.705,0\C,15,1.39724,13,120.749,12,-0.31804,0\C,5,1.39766,3,121.308,2,-0.544335,0\O,22,1.36801,5,124.348,3,179.664,0\C,22,1.39058,5,120.183,3,-0.972372,0\H,24,1.07775,22,119.212,5,-178.646,0\C,24,1.38435,22,119.011,5,0.99709,0\C,10,1.40369,8,121.88,7,-0.521237,0\O,27,1.36695,10,114.904,8,179.629,0\C,27,1.38495,10,120.267,8,-0.958778,0\H,29,1.07764,27,122.286,10,-178.581,0\C,29,1.39065,27,118.318,10,0.951636,0\C,23,1.40498,22,118.745,5,-0.429797,0\H,32,1.08909,23,105.645,22,-179.552,0\H,32,1.09524,23,111.683,22,-60.9732,0\H,32,1.09528,23,111.694,22,61.8806,0\C,28,1.40529,27,118.229,10,179.37,0\H,36,1.08895,28,105.749,27,179.844,0\H,36,1.09519,28,111.574,27,-61.4849,0\H,36,1.09519,28,111.584,27,61.1474,0\C,21,1.45202,15,123.641,13,-179.81,0\H,40,1.08063,21,116.457,15,179.226,0\C,40,1.32543,21,128.585,15,-0.826265,0\F,42,1.32843,40,128.121,21,-0.0585022,0\F,42,1.33266,40,123.062,21,-179.967,0\\\@

 Total job time:  140.40s(wall), 140.03s(cpu) 
 Mon Feb  7 18:39:31 2022

        *************************************************************
        *                                                           *
        *  Thank you very much for using Q-Chem.  Have a nice day.  *
        *                                                           *
        *************************************************************


