
Running Job 1 of 1 tidas/B057/conf-2/spe_input.inp
qchem tidas/B057/conf-2/spe_input.inp_152036.0 /home/a/aspuru/seifridm/acdc_laser/descriptor_computation/qchem152036/ 0
/gpfs/fs1/scinet/niagara/software/commercial/qc54/exe/qcprog.exe_s tidas/B057/conf-2/spe_input.inp_152036.0 /home/a/aspuru/seifridm/acdc_laser/descriptor_computation/qchem152036/
                  Welcome to Q-Chem
     A Quantum Leap Into The Future Of Chemistry


 Q-Chem 5.4, Q-Chem, Inc., Pleasanton, CA (2021)

 License issued to: SRG Alan Aspuru-Guzik, University of Toronto

 E. Epifanovsky,  A. T. B. Gilbert,  Xintian Feng,  Joonho Lee,  Yuezhi Mao,  
 N. Mardirossian,  P. Pokhilko,  A. White,  M. Wormit,  M. P. Coons,  
 A. L. Dempwolff,  Zhengting Gan,  D. Hait,  P. R. Horn,  L. D. Jacobson,  
 I. Kaliman,  J. Kussmann,  A. W. Lange,  Ka Un Lao,  D. S. Levine,  Jie Liu,  
 S. C. McKenzie,  A. F. Morrison,  K. Nanda,  F. Plasser,  D. R. Rehn,  
 M. L. Vidal,  Zhi-Qiang You,  Ying Zhu,  B. Alam,  B. Albrecht,  
 A. Aldossary,  E. Alguire,  J. H. Andersen,  D. Barton,  K. Begam,  A. Behn,  
 Y. A. Bernard,  E. J. Berquist,  H. Burton,  A. Carreras,  K. Carter-Fenk,  
 Romit Chakraborty,  A. D. Chien,  K. D. Closser,  V. Cofer-Shabica,  
 S. Dasgupta,  Jia Deng,  M. de Wergifosse,  M. Diedenhofen,  Hainam Do,  
 S. Ehlert,  Po-Tung Fang,  S. Fatehi,  Qingguo Feng,  T. Friedhoff,  
 J. Gayvert,  Qinghui Ge,  G. Gidofalvi,  M. Goldey,  J. Gomes,  
 C. Gonzalez-Espinoza,  S. Gulania,  A. Gunina,  M. W. D. Hanson-Heine,  
 P. H. P. Harbach,  A. W. Hauser,  M. F. Herbst,  M. Hernandez Vera,  
 M. Hodecker,  Z. C. Holden,  S. Houck,  Xunkun Huang,  Kerwin Hui,  
 B. C. Huynh,  M. Ivanov,  Hyunjun Ji,  Hanjie Jiang,  B. Kaduk,  S. Kaehler,  
 K. Khistyaev,  Jaehoon Kim,  P. Klunzinger,  Z. Koczor-Benda,  
 Joong Hoon Koh,  D. Kosenkov,  L. Koulias,  T. Kowalczyk,  C. M. Krauter,  
 K. Kue,  A. Kunitsa,  T. Kus,  A. Landau,  K. V. Lawler,  D. Lefrancois,  
 S. Lehtola,  Rain Li,  Yi-Pei Li,  Jiashu Liang,  M. Liebenthal,  
 Hung-Hsuan Lin,  You-Sheng Lin,  Fenglai Liu,  Kuan-Yu Liu,  
 M. Loipersberger,  A. Luenser,  A. Manjanath,  P. Manohar,  E. Mansoor,  
 S. F. Manzer,  Shan-Ping Mao,  A. V. Marenich,  T. Markovich,  S. Mason,  
 S. A. Maurer,  P. F. McLaughlin,  M. F. S. J. Menger,  J.-M. Mewes,  
 S. A. Mewes,  P. Morgante,  J. W. Mullinax,  K. J. Oosterbaan,  G. Paran,  
 Alexander C. Paul,  Suranjan K. Paul,  F. Pavosevic,  Zheng Pei,  S. Prager,  
 E. I. Proynov,  E. Ramos,  B. Rana,  A. E. Rask,  A. Rettig,  R. M. Richard,  
 F. Rob,  E. Rossomme,  T. Scheele,  M. Scheurer,  M. Schneider,  
 N. Sergueev,  S. M. Sharada,  W. Skomorowski,  D. W. Small,  C. J. Stein,  
 Yu-Chuan Su,  E. J. Sundstrom,  Zhen Tao,  J. Thirman,  T. Tsuchimochi,  
 N. M. Tubman,  S. P. Veccham,  O. Vydrov,  J. Wenzel,  J. Witte,  A. Yamada,  
 Kun Yao,  S. Yeganeh,  S. R. Yost,  A. Zech,  Igor Ying Zhang,  Xing Zhang,  
 Yu Zhang,  D. Zuev,  A. Aspuru-Guzik,  A. T. Bell,  N. A. Besley,  
 K. B. Bravaya,  B. R. Brooks,  D. Casanova,  Jeng-Da Chai,  S. Coriani,  
 C. J. Cramer,  A. E. DePrince, III,  R. A. DiStasio Jr.,  A. Dreuw,  
 B. D. Dunietz,  T. R. Furlani,  W. A. Goddard III,  S. Grimme,  
 S. Hammes-Schiffer,  T. Head-Gordon,  W. J. Hehre,  Chao-Ping Hsu,  
 T.-C. Jagau,  Yousung Jung,  A. Klamt,  Jing Kong,  D. S. Lambrecht,  
 WanZhen Liang,  N. J. Mayhall,  C. W. McCurdy,  J. B. Neaton,  T. Neudecker,  
 C. Ochsenfeld,  J. A. Parkhill,  R. Peverati,  V. A. Rassolov,  Yihan Shao,  
 L. V. Slipchenko,  R. P. Steele,  J. E. Subotnik,  A. J. W. Thom,  
 A. Tkatchenko,  D. G. Truhlar,  T. Van Voorhis,  T. A. Wesolowski,  
 K. B. Whaley,  H. L. Woodcock III,  P. M. Zimmerman,  S. Faraji,  
 P. M. W. Gill,  M. Head-Gordon,  J. M. Herbert,  A. I. Krylov

 Additional authors since Version 5.4.0: 
 Chandrima Chakravarty,  L. Cunha,  R. Kang,  Yongbin Kim,  S. Kotaru,  
 Shaozhi Li,  Xiangyuan Li,  F. Matz,  A. Molle,  V. Parravicini,  
 Haisheng Ren,  Hengyuan Shen,  Yingli Su,  Hung-Yi Tsai,  C. Utku,  
 Fang Wang,  Jeff Yang,  F. Zeller

 Contributors to earlier versions of Q-Chem not listed above: 
 R. D. Adamson,  B. Austin,  R. Baer,  J. Baker,  G. J. O. Beran,  
 K. Brandhorst,  S. T. Brown,  E. F. C. Byrd,  Arup K. Chakraborty,  
 G. K. L. Chan,  Chun-Min Chang,  Yunqing Chen,  C.-L. Cheng,  
 Siu Hung Chien,  D. M. Chipman,  D. L. Crittenden,  H. Dachsel,  
 R. J. Doerksen,  A. D. Dutoi,  R. G. Edgar,  J. Fosso-Tande,  
 L. Fusti-Molnar,  D. Ghosh,  A. Ghysels,  A. Golubeva-Zadorozhnaya,  
 J. Gonthier,  M. S. Gordon,  S. R. Gwaltney,  G. Hawkins,  J. E. Herr,  
 A. Heyden,  S. Hirata,  E. G. Hohenstein,  G. Kedziora,  F. J. Keil,  
 C. Kelley,  Jihan Kim,  R. A. King,  R. Z. Khaliullin,  P. P. Korambath,  
 W. Kurlancheek,  A. Laurent,  A. M. Lee,  M. S. Lee,  S. V. Levchenko,  
 Ching Yeh Lin,  D. Liotard,  E. Livshits,  R. C. Lochan,  I. Lotan,  
 L. A. Martinez-Martinez,  P. E. Maslen,  N. Nair,  D. P. O'Neill,  
 D. Neuhauser,  E. Neuscamman,  C. M. Oana,  R. Olivares-Amaya,  R. Olson,  
 T. M. Perrine,  B. Peters,  P. A. Pieniazek,  A. Prociuk,  Y. M. Rhee,  
 J. Ritchie,  M. A. Rohrdanz,  E. Rosta,  N. J. Russ,  H. F. Schaefer III,  
 M. W. Schmidt,  N. E. Schultz,  S. Sharma,  N. Shenvi,  C. D. Sherrill,  
 A. C. Simmonett,  A. Sodt,  T. Stein,  D. Stuck,  K. S. Thanthiriwatte,  
 V. Vanovschi,  L. Vogt,  Tao Wang,  A. Warshel,  M. A. Watson,  
 C. F. Williams,  Q. Wu,  X. Xu,  Jun Yang,  W. Zhang,  Yan Zhao

   Please cite Q-Chem as follows:
  "Software for the frontiers of quantum chemistry:
   An overview of developments in the Q-Chem 5 package"
   J. Chem. Phys. 155, 084801 (2021)
   https://doi.org/10.1063/5.0055522 (open access)

 Q-Chem 5.4.2 for Intel X86 EM64T Linux

 Parts of Q-Chem use Armadillo 9.900.5 (Nocturnal Misbehaviour).
 http://arma.sourceforge.net/

 Q-Chem begins on Fri Aug 12 13:13:18 2022  

 Host: 
0

     Scratch files written to /home/a/aspuru/seifridm/acdc_laser/descriptor_computation/qchem152036//
 Dec1321 |scratch|qcdevops|jenkins|workspace|build_RNUM 6959   
 Processing $rem in /gpfs/fs1/scinet/niagara/software/commercial/qc54/config/preferences:
 Processing $rem in /home/a/aspuru/seifridm/.qchemrc:

 Checking the input file for inconsistencies... 	...done.

--------------------------------------------------------------
User input:
--------------------------------------------------------------
$molecule
0 1
C            1.57321561030000       -2.58343928780000       -0.50425927880000
C            0.81468943420000       -1.71263184680000        0.14706924960000
C            0.98801742950000       -0.26969392290000        0.11022407700000
C            2.18288230410000        0.35768361440000       -0.09584143310000
S            2.07942628860000        2.06398495880000        0.03991355770000
C            0.40633582360000        1.96232893200000        0.39038743400000
C           -0.05567936960000        0.67716104560000        0.38386734340000
C           -1.45814216760000        0.36736509750000        0.61605741540000
C           -2.16448108960000       -0.55466014270000       -0.01744752320000
F           -1.75590142230000       -1.35641071880000       -0.99222318440000
F           -3.45184832880000       -0.79151693570000        0.23157483740000
H            1.40713389330000       -3.64327030900000       -0.42426173960000
H            2.37250895090000       -2.26981853380000       -1.15383260070000
H            0.00164608530000       -2.06345887570000        0.76924703910000
H            3.13421507830000       -0.09522373650000       -0.28942085970000
H           -0.15838885860000        2.85827489750000        0.55631360990000
H           -1.98948429240000        0.97278205370000        1.33514321230000
$end

$rem
BASIS = 6-31G*
GUI = 2
METHOD = B3LYP
PRINT_ORBITALS false
MOLDEN_FORMAT false
$end
--------------------------------------------------------------
 ----------------------------------------------------------------
             Standard Nuclear Orientation (Angstroms)
    I     Atom           X                Y                Z
 ----------------------------------------------------------------
    1      C      -0.1231147016     3.0261522610     0.0657993284
    2      C       0.1221111119     1.7960976467     0.4955973707
    3      C      -0.7056753713     0.6358500837     0.2091272260
    4      C      -2.0494005688     0.6874324568    -0.0264772937
    5      S      -2.7605420398    -0.8621372942    -0.2100753268
    6      C      -1.2443726514    -1.6179946916     0.0395395166
    7      C      -0.2343620506    -0.7198389435     0.2353758894
    8      C       1.1433272218    -1.1474086662     0.4249650765
    9      C       2.2154050115    -0.5563503761    -0.0767051678
   10      F       2.2553390349     0.5136430266    -0.8599345800
   11      F       3.4568484976    -0.9968058924     0.1239056347
   12      H       0.5177574593     3.8501950293     0.3255317406
   13      H      -0.9590045916     3.2505713633    -0.5745892103
   14      H       0.9882802303     1.6027278832     1.1149385416
   15      H      -2.6725136611     1.5577545438    -0.0700851975
   16      H      -1.1694504595    -2.6866914875     0.0016124910
   17      H       1.3104078576    -2.0555334589     0.9847256948
 ----------------------------------------------------------------
 Molecular Point Group                 C1    NOp =  1
 Largest Abelian Subgroup              C1    NOp =  1
 Nuclear Repulsion Energy =         662.83548264 hartrees
 There are       44 alpha and       44 beta electrons
 Requested basis set is 6-31G(d)
 There are 57 shells and 181 basis functions

 Total QAlloc Memory Limit   8000 MB
 Mega-Array Size       188 MB
 MEM_STATIC part       192 MB
 A cutoff of  1.0D-08 yielded   1243 shell pairs
 There are     13330 function pairs
 Smallest overlap matrix eigenvalue = 9.47E-04

 Scale SEOQF with 1.000000e-01/1.000000e-01/1.000000e+00

 Standard Electronic Orientation quadrupole field applied
 Nucleus-field energy     =     0.0000000110 hartrees
 Guess from superposition of atomic densities
 Warning:  Energy on first SCF cycle will be non-variational
 SAD guess density has 88.000000 electrons

 -----------------------------------------------------------------------
  General SCF calculation program by
  Eric Jon Sundstrom, Paul Horn, Yuezhi Mao, Dmitri Zuev, Alec White,
  David Stuck, Shaama M.S., Shane Yost, Joonho Lee, David Small,
  Daniel Levine, Susi Lehtola, Hugh Burton, Evgeny Epifanovsky,
  Bang C. Huynh
 -----------------------------------------------------------------------
 Exchange:     0.2000 Hartree-Fock + 0.0800 Slater + 0.7200 B88
 Correlation:  0.1900 VWN1RPA + 0.8100 LYP
 Using SG-1 standard quadrature grid
 A restricted SCF calculation will be
 performed using DIIS
 SCF converges when DIIS error is below 1.0e-05
 ---------------------------------------
  Cycle       Energy         DIIS error
 ---------------------------------------
    1    -908.7461700884      5.85e-02  
    2    -906.0577914068      7.03e-03  
    3    -905.8033527995      1.03e-02  
    4    -906.2499801867      1.86e-03  
    5    -906.2628416592      7.00e-04  
    6    -906.2645710409      2.59e-04  
    7    -906.2648295860      7.04e-05  
    8    -906.2648498412      2.10e-05  
    9    -906.2648518577      5.43e-06  Convergence criterion met
 ---------------------------------------
 SCF time:   CPU 28.19s  wall 29.00s 
 SCF   energy in the final basis set =     -906.2648518577
 Total energy in the final basis set =     -906.2648518577
 
 --------------------------------------------------------------
 
                    Orbital Energies (a.u.)
 --------------------------------------------------------------
 
 Alpha MOs
 -- Occupied --
-88.9130 -24.7400 -24.7344 -10.3572 -10.2133 -10.2118 -10.2075 -10.2057
-10.1995 -10.1920 -10.1789  -7.9747  -5.9385  -5.9349  -5.9321  -1.2835
 -1.2231  -0.8955  -0.8106  -0.7927  -0.7278  -0.7148  -0.6371  -0.6088
 -0.5812  -0.5644  -0.5537  -0.5186  -0.5067  -0.4861  -0.4570  -0.4408
 -0.4384  -0.4259  -0.4149  -0.4005  -0.3884  -0.3843  -0.3706  -0.3448
 -0.2987  -0.2893  -0.2247  -0.2225
 -- Virtual --
 -0.0284  -0.0077   0.0261   0.0536   0.0968   0.1000   0.1162   0.1216
  0.1400   0.1511   0.1596   0.1769   0.2011   0.2103   0.2506   0.2924
  0.3065   0.3284   0.3508   0.3625   0.3745   0.3835   0.4260   0.4337
  0.4518   0.4817   0.5174   0.5241   0.5303   0.5481   0.5622   0.5671
  0.5809   0.5906   0.6002   0.6034   0.6377   0.6701   0.6839   0.7053
  0.7249   0.7701   0.7787   0.7908   0.8153   0.8424   0.8458   0.8532
  0.8675   0.8726   0.8907   0.9105   0.9340   0.9415   0.9663   0.9954
  1.0026   1.0469   1.0489   1.0588   1.0766   1.1236   1.1505   1.1635
  1.1797   1.2121   1.2188   1.2435   1.2868   1.3314   1.3439   1.3552
  1.4085   1.4156   1.4423   1.4668   1.4910   1.5008   1.5385   1.5799
  1.6692   1.6761   1.7050   1.7390   1.7648   1.7940   1.8152   1.8184
  1.8421   1.8535   1.8805   1.9076   1.9289   1.9764   1.9943   2.0045
  2.0098   2.0414   2.0723   2.0966   2.1212   2.1465   2.1918   2.2098
  2.2702   2.2814   2.3108   2.3329   2.3911   2.4104   2.4377   2.5066
  2.5193   2.5340   2.5453   2.6238   2.6768   2.7116   2.7478   2.8148
  2.8583   3.0111   3.0712   3.1015   3.2066   3.2995   3.9480   4.0794
  4.1028   4.1202   4.1502   4.2841   4.2921   4.3926   4.6687   4.7702
  5.2505
 --------------------------------------------------------------
 
          Ground-State Mulliken Net Atomic Charges

     Atom                 Charge (a.u.)
  ----------------------------------------
      1 C                    -0.347070
      2 C                    -0.099662
      3 C                     0.150850
      4 C                    -0.413623
      5 S                     0.274342
      6 C                    -0.403614
      7 C                     0.142546
      8 C                    -0.323101
      9 C                     0.560914
     10 F                    -0.229573
     11 F                    -0.247585
     12 H                     0.143989
     13 H                     0.140276
     14 H                     0.133852
     15 H                     0.175254
     16 H                     0.173136
     17 H                     0.169070
  ----------------------------------------
  Sum of atomic charges =     0.000000

 -----------------------------------------------------------------
                    Cartesian Multipole Moments
 -----------------------------------------------------------------
    Charge (ESU x 10^10)
                 0.0000
    Dipole Moment (Debye)
         X      -0.5526      Y      -0.3801      Z       0.4416
       Tot       0.8030
    Quadrupole Moments (Debye-Ang)
        XX     -69.9049     XY      -1.2058     YY     -61.5586
        XZ       2.1538     YZ      -0.6709     ZZ     -70.4668
    Octopole Moments (Debye-Ang^2)
       XXX      25.5399    XXY       8.0006    XYY       9.0108
       YYY      -8.5998    XXZ      -2.9624    XYZ       2.9837
       YYZ      -1.5425    XZZ      18.5914    YZZ      -2.9465
       ZZZ      -7.3070
    Hexadecapole Moments (Debye-Ang^3)
      XXXX   -1608.4633   XXXY     -27.3517   XXYY    -394.9743
      XYYY      -0.1387   YYYY    -817.9305   XXXZ      -4.3268
      XXYZ      -0.7258   XYYZ       9.1941   YYYZ     -14.2741
      XXZZ    -289.1435   XYZZ      -7.4431   YYZZ    -175.8762
      XZZZ     -11.2403   YZZZ      -7.0268   ZZZZ    -124.6728
 -----------------------------------------------------------------
 Total job time:  28.93s(wall), 28.47s(cpu) 
 Fri Aug 12 13:13:47 2022

        *************************************************************
        *                                                           *
        *  Thank you very much for using Q-Chem.  Have a nice day.  *
        *                                                           *
        *************************************************************


