
Running Job 1 of 1 fragments/C116/conf-2/spe_input.inp
qchem fragments/C116/conf-2/spe_input.inp_84950.0 /gpfs/fs0/scratch/a/aspuru/rhickman/descriptor_computation/qchem84950/ 0
/scinet/niagara/software/commercial/qc52/exe/qcprog.exe_s fragments/C116/conf-2/spe_input.inp_84950.0 /gpfs/fs0/scratch/a/aspuru/rhickman/descriptor_computation/qchem84950/
                  Welcome to Q-Chem
     A Quantum Leap Into The Future Of Chemistry


 Q-Chem 5.2, Q-Chem, Inc., Pleasanton, CA (2019)

 License issued to: SRG Alan Aspuru-Guzik, University of Toronto

 Yihan Shao,  Zhengting Gan,  E. Epifanovsky,  A. T. B. Gilbert,  M. Wormit,  
 J. Kussmann,  A. W. Lange,  A. Behn,  Jia Deng,  Xintian Feng,  D. Ghosh,  
 M. Goldey,  P. R. Horn,  L. D. Jacobson,  I. Kaliman,  T. Kus,  A. Landau,  
 Jie Liu,  E. I. Proynov,  R. M. Richard,  R. P. Steele,  E. J. Sundstrom,  
 H. L. Woodcock III,  P. M. Zimmerman,  D. Zuev,  B. Albrecht,  E. Alguire,  
 S. A. Baeppler,  D. Barton,  Z. Benda,  Y. A. Bernard,  E. J. Berquist,  
 K. B. Bravaya,  H. Burton,  D. Casanova,  Chun-Min Chang,  Yunqing Chen,  
 A. Chien,  K. D. Closser,  M. P. Coons,  S. Coriani,  S. Dasgupta,  
 A. L. Dempwolff,  M. Diedenhofen,  Hainam Do,  R. G. Edgar,  Po-Tung Fang,  
 S. Faraji,  S. Fatehi,  Qingguo Feng,  K. D. Fenk,  J. Fosso-Tande,  
 J. Gayvert,  Qinghui Ge,  A. Ghysels,  G. Gidofalvi,  J. Gomes,  
 J. Gonthier,  A. Gunina,  D. Hait,  M. W. D. Hanson-Heine,  
 P. H. P. Harbach,  A. W. Hauser,  M. F. Herbst,  J. E. Herr,  
 E. G. Hohenstein,  Z. C. Holden,  Kerwin Hui,  B. C. Huynh,  T.-C. Jagau,  
 Hyunjun Ji,  B. Kaduk,  K. Khistyaev,  Jaehoon Kim,  P. Klunzinger,  K. Koh,  
 D. Kosenkov,  L. Koulias,  T. Kowalczyk,  C. M. Krauter,  A. Kunitsa,  
 Ka Un Lao,  A. Laurent,  K. V. Lawler,  Joonho Lee,  D. Lefrancois,  
 S. Lehtola,  D. S. Levine,  Yi-Pei Li,  You-Sheng Lin,  Fenglai Liu,  
 E. Livshits,  A. Luenser,  P. Manohar,  E. Mansoor,  S. F. Manzer,  
 Shan-Ping Mao,  Yuezhi Mao,  N. Mardirossian,  A. V. Marenich,  
 T. Markovich,  L. A. Martinez-Martinez,  S. A. Maurer,  N. J. Mayhall,  
 S. C. McKenzie,  J.-M. Mewes,  P. Morgante,  A. F. Morrison,  
 J. W. Mullinax,  K. Nanda,  T. S. Nguyen-Beck,  R. Olivares-Amaya,  
 J. A. Parkhill,  Zheng Pei,  T. M. Perrine,  F. Plasser,  P. Pokhilko,  
 S. Prager,  A. Prociuk,  E. Ramos,  D. R. Rehn,  F. Rob,  M. Scheurer,  
 M. Schneider,  N. Sergueev,  S. M. Sharada,  S. Sharma,  D. W. Small,  
 T. Stauch,  T. Stein,  Yu-Chuan Su,  A. J. W. Thom,  A. Tkatchenko,  
 T. Tsuchimochi,  N. M. Tubman,  L. Vogt,  M. L. Vidal,  O. Vydrov,  
 M. A. Watson,  J. Wenzel,  M. de Wergifosse,  T. A. Wesolowski,  A. White,  
 J. Witte,  A. Yamada,  Jun Yang,  K. Yao,  S. Yeganeh,  S. R. Yost,  
 Zhi-Qiang You,  A. Zech,  Igor Ying Zhang,  Xing Zhang,  Yan Zhao,  
 Ying Zhu,  B. R. Brooks,  G. K. L. Chan,  C. J. Cramer,  M. S. Gordon,  
 W. J. Hehre,  A. Klamt,  M. W. Schmidt,  C. D. Sherrill,  D. G. Truhlar,  
 A. Aspuru-Guzik,  R. Baer,  A. T. Bell,  N. A. Besley,  Jeng-Da Chai,  
 A. E. DePrince, III,  R. A. DiStasio Jr.,  A. Dreuw,  B. D. Dunietz,  
 T. R. Furlani,  Chao-Ping Hsu,  Yousung Jung,  Jing Kong,  D. S. Lambrecht,  
 WanZhen Liang,  C. Ochsenfeld,  V. A. Rassolov,  L. V. Slipchenko,  
 J. E. Subotnik,  T. Van Voorhis,  J. M. Herbert,  A. I. Krylov,  
 P. M. W. Gill,  M. Head-Gordon

 Contributors to earlier versions of Q-Chem not listed above: 
 R. D. Adamson,  B. Austin,  J. Baker,  G. J. O. Beran,  K. Brandhorst,  
 S. T. Brown,  E. F. C. Byrd,  A. K. Chakraborty,  C.-L. Cheng,  
 Siu Hung Chien,  D. M. Chipman,  D. L. Crittenden,  H. Dachsel,  
 R. J. Doerksen,  A. D. Dutoi,  L. Fusti-Molnar,  W. A. Goddard III,  
 A. Golubeva-Zadorozhnaya,  S. R. Gwaltney,  G. Hawkins,  A. Heyden,  
 S. Hirata,  G. Kedziora,  F. J. Keil,  C. Kelley,  Jihan Kim,  R. A. King,  
 R. Z. Khaliullin,  P. P. Korambath,  W. Kurlancheek,  A. M. Lee,  M. S. Lee,  
 S. V. Levchenko,  Ching Yeh Lin,  D. Liotard,  R. C. Lochan,  I. Lotan,  
 P. E. Maslen,  N. Nair,  D. P. O'Neill,  D. Neuhauser,  E. Neuscamman,  
 C. M. Oana,  R. Olson,  B. Peters,  R. Peverati,  P. A. Pieniazek,  
 Y. M. Rhee,  J. Ritchie,  M. A. Rohrdanz,  E. Rosta,  N. J. Russ,  
 H. F. Schaefer III,  N. E. Schultz,  N. Shenvi,  A. C. Simmonett,  A. Sodt,  
 D. Stuck,  K. S. Thanthiriwatte,  V. Vanovschi,  Tao Wang,  A. Warshel,  
 C. F. Williams,  Q. Wu,  X. Xu,  W. Zhang

 Please cite Q-Chem as follows:
 Y. Shao et al., Mol. Phys. 113, 184-215 (2015)
 DOI: 10.1080/00268976.2014.952696

 Q-Chem 5.2.1 for Intel X86 EM64T Linux

 Parts of Q-Chem use Armadillo 8.300.2 (Tropical Shenanigans).
 http://arma.sourceforge.net/

 Q-Chem begins on Mon Feb  7 14:43:41 2022  

Host: 
0

     Scratch files written to /gpfs/fs0/scratch/a/aspuru/rhickman/descriptor_computation/qchem84950//
 Jul1719 |scratch|qcdevops|jenkins|workspace|build_RNUM -1
Processing $rem in /scinet/niagara/software/commercial/qc52/config/preferences:
	 MEM_TOTAL  4000 
NAlpha2: 94
NElect   94
Mult     1

Checking the input file for inconsistencies... 	...done.

--------------------------------------------------------------
User input:
--------------------------------------------------------------
$molecule
0 1
C        -3.93708528130000   -0.89369033850000    0.25152784170000
C        -2.92022165870000   -0.05134963070000    0.11658149130000
C        -1.52247756240000   -0.43347150840000    0.00510340790000
C        -1.06294639350000   -1.69382792690000   -0.27945360260000
S         0.63607472720000   -1.79514354770000   -0.38019513550000
C         0.78299404170000   -0.10214290590000   -0.03582315640000
C         2.16894699860000    0.36840200260000    0.09690994690000
O         3.09976292020000   -0.34891316310000   -0.16349236810000
O         2.36364924270000    1.61727807880000    0.55054463690000
C        -0.44641294180000    0.49808907080000    0.13941254080000
C        -0.68956036070000    1.91369067000000    0.42577452200000
C        -0.22459451520000    2.92161545160000   -0.30269662070000
H        -4.95067883460000   -0.54002232470000    0.32376417550000
H        -3.79859050990000   -1.95978617720000    0.30196079190000
H        -3.10878797210000    1.01359247370000    0.08321484800000
H        -1.65234581200000   -2.57170471430000   -0.45389340800000
H         1.53052208240000    2.09637997410000    0.69340438820000
H        -1.33802287230000    2.10566495100000    1.27256271590000
H         0.37985988320000    2.76016689180000   -1.18123682290000
H        -0.45734766840000    3.94524303150000   -0.06366316060000
$end

$rem
BASIS = 6-31G*
GUI = 2
METHOD = B3LYP
PRINT_ORBITALS false
MOLDEN_FORMAT false
--------------------------------------------------------------
 ----------------------------------------------------------------
             Standard Nuclear Orientation (Angstroms)
    I     Atom           X                Y                Z
 ----------------------------------------------------------------
    1      C       3.9785394979     0.0139296746    -0.2195730020
    2      C       2.7936030384     0.5801499520    -0.0270108120
    3      C       1.5213603109    -0.1219768821    -0.0035714732
    4      C       1.3637790476    -1.4779996065     0.1268524710
    5      S      -0.2664208364    -1.9764093668     0.1603566393
    6      C      -0.7984719675    -0.3341779030    -0.0022039075
    7      C      -2.2547461187    -0.1815316678    -0.1281440123
    8      O      -2.9962203507    -1.1177138160     0.0220147077
    9      O      -2.7298759618     1.0327855106    -0.4491896040
   10      C       0.2599976391     0.5475095619    -0.0707372019
   11      C       0.1711826125     2.0042819090    -0.1931216745
   12      C      -0.5190638436     2.7895817337     0.6251935605
   13      H       4.8833646521     0.5961345107    -0.2196838544
   14      H       4.0906128302    -1.0427499902    -0.3903133765
   15      H       2.7306241537     1.6491162848     0.1282853968
   16      H       2.1389934613    -2.2115715496     0.2238235560
   17      H      -2.0291522077     1.7029544375    -0.5117054394
   18      H       0.7633287808     2.4344812189    -0.9923084286
   19      H      -1.0756644791     2.3953666579     1.4606897308
   20      H      -0.5276846087     3.8596441104     0.5068016684
 ----------------------------------------------------------------
 Molecular Point Group                 C1    NOp =  1
 Largest Abelian Subgroup              C1    NOp =  1
 Nuclear Repulsion Energy =         755.51490231 hartrees
 There are       47 alpha and       47 beta electrons
 Requested basis set is 6-31G(d)
 There are 65 shells and 200 basis functions

 Total QAlloc Memory Limit   4000 MB
 Mega-Array Size       188 MB
 MEM_STATIC part       192 MB
 A cutoff of  1.0D-08 yielded   1541 shell pairs
 There are     15848 function pairs
 Smallest overlap matrix eigenvalue = 6.35E-04

 Scale SEOQF with 1.000000e-01/1.000000e-01/1.000000e+00

 Standard Electronic Orientation quadrupole field applied
 Nucleus-field energy     =     0.0000000193 hartrees
 Guess from superposition of atomic densities
 Warning:  Energy on first SCF cycle will be non-variational
 SAD guess density has 94.000000 electrons

 -----------------------------------------------------------------------
  General SCF calculation program by
  Eric Jon Sundstrom, Paul Horn, Yuezhi Mao, Dmitri Zuev, Alec White,
  David Stuck, Shaama M.S., Shane Yost, Joonho Lee, David Small,
  Daniel Levine, Susi Lehtola, Hugh Burton, Evgeny Epifanovsky,
  Bang C. Huynh
 -----------------------------------------------------------------------
 Exchange:     0.2000 Hartree-Fock + 0.0800 Slater + 0.7200 B88
 Correlation:  0.1900 VWN1RPA + 0.8100 LYP
 Using SG-1 standard quadrature grid
 A restricted SCF calculation will be
 performed using DIIS
 SCF converges when DIIS error is below 1.0e-05
 ---------------------------------------
  Cycle       Energy         DIIS error
 ---------------------------------------
    1    -899.1546514038      5.74e-02  
    2    -896.1198372278      7.23e-03  
    3    -895.8104531857      1.13e-02  
    4    -896.3343215802      2.50e-03  
    5    -896.3588759978      6.78e-04  
    6    -896.3604574796      3.07e-04  
    7    -896.3608999137      1.06e-04  
    8    -896.3609503079      3.07e-05  
    9    -896.3609548508      1.05e-05  
   10    -896.3609553906      2.53e-06  Convergence criterion met
 ---------------------------------------
 SCF time:   CPU 30.74s  wall 31.00s 
 SCF   energy in the final basis set =     -896.3609553906
 Total energy in the final basis set =     -896.3609553906
 
 --------------------------------------------------------------
 
                    Orbital Energies (a.u.)
 --------------------------------------------------------------
 
 Alpha MOs
 -- Occupied --
-88.9246 -19.1849 -19.1276 -10.3206 -10.2340 -10.2294 -10.2286 -10.2262
-10.2169 -10.2144 -10.2062 -10.1938  -7.9854  -5.9493  -5.9455  -5.9429
 -1.0982  -1.0164  -0.9101  -0.8249  -0.8083  -0.7468  -0.7366  -0.6470
 -0.6234  -0.6224  -0.5951  -0.5481  -0.5182  -0.4976  -0.4826  -0.4530
 -0.4475  -0.4460  -0.4335  -0.4118  -0.4012  -0.3961  -0.3786  -0.3683
 -0.3544  -0.3195  -0.3146  -0.3050  -0.2738  -0.2559  -0.2331
 -- Virtual --
 -0.0652  -0.0405  -0.0029   0.0276   0.0751   0.0863   0.0961   0.1141
  0.1168   0.1221   0.1271   0.1343   0.1685   0.1745   0.1992   0.2188
  0.2378   0.2713   0.2961   0.3011   0.3142   0.3268   0.3531   0.3568
  0.3728   0.3974   0.4241   0.4390   0.4558   0.4976   0.5032   0.5237
  0.5271   0.5427   0.5537   0.5691   0.5805   0.5880   0.6022   0.6165
  0.6235   0.6294   0.6473   0.6661   0.6774   0.7120   0.7221   0.7280
  0.7454   0.7839   0.7846   0.8201   0.8230   0.8304   0.8326   0.8544
  0.8678   0.8755   0.8874   0.9163   0.9300   0.9354   0.9501   0.9574
  0.9647   0.9836   0.9955   1.0300   1.0469   1.0500   1.0691   1.0927
  1.1272   1.1454   1.1569   1.1764   1.1941   1.2275   1.2715   1.2962
  1.3038   1.3392   1.3655   1.4226   1.4272   1.4631   1.4695   1.4795
  1.5060   1.5126   1.5588   1.6393   1.6527   1.6653   1.6952   1.7291
  1.7677   1.7911   1.8043   1.8154   1.8273   1.8458   1.8869   1.9066
  1.9311   1.9655   1.9829   1.9948   2.0211   2.0336   2.0583   2.0671
  2.0989   2.1350   2.1875   2.2191   2.2495   2.2648   2.2788   2.3040
  2.3502   2.3664   2.4349   2.4565   2.4821   2.5033   2.5226   2.5836
  2.6239   2.6547   2.6634   2.6954   2.7394   2.7744   2.8155   2.8792
  2.9857   3.0511   3.0587   3.1902   3.2555   3.9014   3.9623   4.0839
  4.0897   4.1425   4.1808   4.2256   4.2500   4.3428   4.3927   4.5080
  4.6865
 --------------------------------------------------------------
 
          Ground-State Mulliken Net Atomic Charges

     Atom                 Charge (a.u.)
  ----------------------------------------
      1 C                    -0.345046
      2 C                    -0.104718
      3 C                     0.153213
      4 C                    -0.413822
      5 S                     0.337689
      6 C                    -0.319447
      7 C                     0.611030
      8 O                    -0.455406
      9 O                    -0.593439
     10 C                     0.126472
     11 C                    -0.192644
     12 C                    -0.341843
     13 H                     0.149963
     14 H                     0.144229
     15 H                     0.134938
     16 H                     0.179196
     17 H                     0.413427
     18 H                     0.166763
     19 H                     0.182281
     20 H                     0.167165
  ----------------------------------------
  Sum of atomic charges =     0.000000

 -----------------------------------------------------------------
                    Cartesian Multipole Moments
 -----------------------------------------------------------------
    Charge (ESU x 10^10)
                 0.0000
    Dipole Moment (Debye)
         X       4.8080      Y       2.7779      Z       0.0026
       Tot       5.5528
    Quadrupole Moments (Debye-Ang)
        XX     -86.5745     XY      -6.7605     YY     -67.0657
        XZ      -1.6058     YZ      -0.0194     ZZ     -76.8240
    Octopole Moments (Debye-Ang^2)
       XXX      57.7218    XXY       6.7955    XYY       5.3331
       YYY      16.8912    XXZ       0.9110    XYZ      -3.5819
       YYZ       0.1506    XZZ     -14.9504    YZZ       2.1502
       ZZZ      -0.8127
    Hexadecapole Moments (Debye-Ang^3)
      XXXX   -1993.4284   XXXY     -27.8035   XXYY    -487.8201
      XYYY     -40.1357   YYYY    -956.3856   XXXZ     -16.3336
      XXYZ       5.4253   XYYZ      -3.0776   YYYZ      -3.7404
      XXZZ    -354.0811   XYZZ      -1.9500   YYZZ    -195.7517
      XZZZ       3.3541   YZZZ      -1.0562   ZZZZ    -118.2329
 -----------------------------------------------------------------
Archival summary:
1\1\nia1977.scinet.local\SP\ProcedureUnspecified\6-31G*\1298\rhickman\MonFeb714:44:122022MonFeb714:44:122022\0\\#,ProcedureUnspecified,6-31G*,\\0,1\S\C,1,1.70502\H,2,1.07168,1,119.324\C,2,1.37136,1,113.627,3,-178.87,0\C,4,1.4296,2,111.478,1,0.408069,0\C,5,1.37929,4,112.049,2,-0.637435,0\C,4,1.45332,2,125.439,1,178.403,0\H,7,1.08202,4,115.089,2,-164.399,0\C,7,1.32731,4,125.292,2,15.6182,0\H,9,1.07595,7,121.328,4,-179.695,0\H,9,1.07624,7,122.332,4,0.75572,0\C,5,1.4646,4,121.549,2,179.165,0\H,12,1.0837,5,115.046,4,51.268,0\C,12,1.3277,5,124.634,4,-125.72,0\H,14,1.07663,12,121.618,5,178.192,0\H,14,1.07855,12,121.975,5,0.112554,0\C,6,1.46966,5,133.611,4,-174.517,0\O,17,1.20365,6,121.261,5,-177.214,0\O,17,1.3429,6,117.71,5,4.37913,0\H,19,0.971622,17,112.577,6,-3.45182,0\\\@

 Total job time:  31.00s(wall), 30.89s(cpu) 
 Mon Feb  7 14:44:12 2022

        *************************************************************
        *                                                           *
        *  Thank you very much for using Q-Chem.  Have a nice day.  *
        *                                                           *
        *************************************************************


