
Running Job 1 of 1 fragments/B027/conf-1/spe_input.inp
qchem fragments/B027/conf-1/spe_input.inp_249902.0 /gpfs/fs0/scratch/a/aspuru/rhickman/descriptor_computation/qchem249902/ 0
/scinet/niagara/software/commercial/qc52/exe/qcprog.exe_s fragments/B027/conf-1/spe_input.inp_249902.0 /gpfs/fs0/scratch/a/aspuru/rhickman/descriptor_computation/qchem249902/
                  Welcome to Q-Chem
     A Quantum Leap Into The Future Of Chemistry


 Q-Chem 5.2, Q-Chem, Inc., Pleasanton, CA (2019)

 License issued to: SRG Alan Aspuru-Guzik, University of Toronto

 Yihan Shao,  Zhengting Gan,  E. Epifanovsky,  A. T. B. Gilbert,  M. Wormit,  
 J. Kussmann,  A. W. Lange,  A. Behn,  Jia Deng,  Xintian Feng,  D. Ghosh,  
 M. Goldey,  P. R. Horn,  L. D. Jacobson,  I. Kaliman,  T. Kus,  A. Landau,  
 Jie Liu,  E. I. Proynov,  R. M. Richard,  R. P. Steele,  E. J. Sundstrom,  
 H. L. Woodcock III,  P. M. Zimmerman,  D. Zuev,  B. Albrecht,  E. Alguire,  
 S. A. Baeppler,  D. Barton,  Z. Benda,  Y. A. Bernard,  E. J. Berquist,  
 K. B. Bravaya,  H. Burton,  D. Casanova,  Chun-Min Chang,  Yunqing Chen,  
 A. Chien,  K. D. Closser,  M. P. Coons,  S. Coriani,  S. Dasgupta,  
 A. L. Dempwolff,  M. Diedenhofen,  Hainam Do,  R. G. Edgar,  Po-Tung Fang,  
 S. Faraji,  S. Fatehi,  Qingguo Feng,  K. D. Fenk,  J. Fosso-Tande,  
 J. Gayvert,  Qinghui Ge,  A. Ghysels,  G. Gidofalvi,  J. Gomes,  
 J. Gonthier,  A. Gunina,  D. Hait,  M. W. D. Hanson-Heine,  
 P. H. P. Harbach,  A. W. Hauser,  M. F. Herbst,  J. E. Herr,  
 E. G. Hohenstein,  Z. C. Holden,  Kerwin Hui,  B. C. Huynh,  T.-C. Jagau,  
 Hyunjun Ji,  B. Kaduk,  K. Khistyaev,  Jaehoon Kim,  P. Klunzinger,  K. Koh,  
 D. Kosenkov,  L. Koulias,  T. Kowalczyk,  C. M. Krauter,  A. Kunitsa,  
 Ka Un Lao,  A. Laurent,  K. V. Lawler,  Joonho Lee,  D. Lefrancois,  
 S. Lehtola,  D. S. Levine,  Yi-Pei Li,  You-Sheng Lin,  Fenglai Liu,  
 E. Livshits,  A. Luenser,  P. Manohar,  E. Mansoor,  S. F. Manzer,  
 Shan-Ping Mao,  Yuezhi Mao,  N. Mardirossian,  A. V. Marenich,  
 T. Markovich,  L. A. Martinez-Martinez,  S. A. Maurer,  N. J. Mayhall,  
 S. C. McKenzie,  J.-M. Mewes,  P. Morgante,  A. F. Morrison,  
 J. W. Mullinax,  K. Nanda,  T. S. Nguyen-Beck,  R. Olivares-Amaya,  
 J. A. Parkhill,  Zheng Pei,  T. M. Perrine,  F. Plasser,  P. Pokhilko,  
 S. Prager,  A. Prociuk,  E. Ramos,  D. R. Rehn,  F. Rob,  M. Scheurer,  
 M. Schneider,  N. Sergueev,  S. M. Sharada,  S. Sharma,  D. W. Small,  
 T. Stauch,  T. Stein,  Yu-Chuan Su,  A. J. W. Thom,  A. Tkatchenko,  
 T. Tsuchimochi,  N. M. Tubman,  L. Vogt,  M. L. Vidal,  O. Vydrov,  
 M. A. Watson,  J. Wenzel,  M. de Wergifosse,  T. A. Wesolowski,  A. White,  
 J. Witte,  A. Yamada,  Jun Yang,  K. Yao,  S. Yeganeh,  S. R. Yost,  
 Zhi-Qiang You,  A. Zech,  Igor Ying Zhang,  Xing Zhang,  Yan Zhao,  
 Ying Zhu,  B. R. Brooks,  G. K. L. Chan,  C. J. Cramer,  M. S. Gordon,  
 W. J. Hehre,  A. Klamt,  M. W. Schmidt,  C. D. Sherrill,  D. G. Truhlar,  
 A. Aspuru-Guzik,  R. Baer,  A. T. Bell,  N. A. Besley,  Jeng-Da Chai,  
 A. E. DePrince, III,  R. A. DiStasio Jr.,  A. Dreuw,  B. D. Dunietz,  
 T. R. Furlani,  Chao-Ping Hsu,  Yousung Jung,  Jing Kong,  D. S. Lambrecht,  
 WanZhen Liang,  C. Ochsenfeld,  V. A. Rassolov,  L. V. Slipchenko,  
 J. E. Subotnik,  T. Van Voorhis,  J. M. Herbert,  A. I. Krylov,  
 P. M. W. Gill,  M. Head-Gordon

 Contributors to earlier versions of Q-Chem not listed above: 
 R. D. Adamson,  B. Austin,  J. Baker,  G. J. O. Beran,  K. Brandhorst,  
 S. T. Brown,  E. F. C. Byrd,  A. K. Chakraborty,  C.-L. Cheng,  
 Siu Hung Chien,  D. M. Chipman,  D. L. Crittenden,  H. Dachsel,  
 R. J. Doerksen,  A. D. Dutoi,  L. Fusti-Molnar,  W. A. Goddard III,  
 A. Golubeva-Zadorozhnaya,  S. R. Gwaltney,  G. Hawkins,  A. Heyden,  
 S. Hirata,  G. Kedziora,  F. J. Keil,  C. Kelley,  Jihan Kim,  R. A. King,  
 R. Z. Khaliullin,  P. P. Korambath,  W. Kurlancheek,  A. M. Lee,  M. S. Lee,  
 S. V. Levchenko,  Ching Yeh Lin,  D. Liotard,  R. C. Lochan,  I. Lotan,  
 P. E. Maslen,  N. Nair,  D. P. O'Neill,  D. Neuhauser,  E. Neuscamman,  
 C. M. Oana,  R. Olson,  B. Peters,  R. Peverati,  P. A. Pieniazek,  
 Y. M. Rhee,  J. Ritchie,  M. A. Rohrdanz,  E. Rosta,  N. J. Russ,  
 H. F. Schaefer III,  N. E. Schultz,  N. Shenvi,  A. C. Simmonett,  A. Sodt,  
 D. Stuck,  K. S. Thanthiriwatte,  V. Vanovschi,  Tao Wang,  A. Warshel,  
 C. F. Williams,  Q. Wu,  X. Xu,  W. Zhang

 Please cite Q-Chem as follows:
 Y. Shao et al., Mol. Phys. 113, 184-215 (2015)
 DOI: 10.1080/00268976.2014.952696

 Q-Chem 5.2.1 for Intel X86 EM64T Linux

 Parts of Q-Chem use Armadillo 8.300.2 (Tropical Shenanigans).
 http://arma.sourceforge.net/

 Q-Chem begins on Mon Feb  7 08:26:16 2022  

Host: 
0

     Scratch files written to /gpfs/fs0/scratch/a/aspuru/rhickman/descriptor_computation/qchem249902//
 Jul1719 |scratch|qcdevops|jenkins|workspace|build_RNUM -1
Processing $rem in /scinet/niagara/software/commercial/qc52/config/preferences:
	 MEM_TOTAL  4000 
NAlpha2: 100
NElect   100
Mult     1

Checking the input file for inconsistencies... 	...done.

--------------------------------------------------------------
User input:
--------------------------------------------------------------
$molecule
0 1
C        -4.80284488420000   -1.75752000190000    0.10644072930000
C        -3.50080311320000   -1.51911135510000    0.00944328260000
C        -2.85108333150000   -0.21260417370000   -0.01077338000000
C        -3.56372471110000    0.98861917870000   -0.02252881740000
C        -2.89506398350000    2.19787050570000   -0.04169832970000
C        -1.51397860870000    2.23537561430000   -0.04921491850000
C        -0.76939404110000    1.05173190580000   -0.03841523580000
C         0.67748682070000    1.13949455310000   -0.04749321440000
C         1.54834218820000    0.11913014650000   -0.00889026350000
C         2.97239493150000    0.31666095740000   -0.02145381370000
C         3.85198716410000   -0.67773826940000    0.01845102420000
F         3.55758907940000   -1.97326897290000    0.07459903230000
F         5.17269235660000   -0.52106474290000    0.00775985590000
C        -1.46000316140000   -0.15999398620000   -0.02161679420000
H        -5.18726665440000   -2.76298284240000    0.11503615090000
H        -5.53726309100000   -0.97431009570000    0.18350361550000
H        -2.81973922630000   -2.35910219410000   -0.05686977970000
H        -4.64215870510000    0.97806634110000   -0.02195772710000
H        -3.45657531390000    3.12085483330000   -0.05200455190000
H        -1.00092838180000    3.18629215670000   -0.06396441680000
H         1.07305860710000    2.14756985060000   -0.08695557570000
H         1.21363767470000   -0.90646276240000    0.03517847250000
H         3.36194744610000    1.32195037480000   -0.06563735200000
H        -0.90905657520000   -1.08848872150000   -0.01637654150000
$end

$rem
BASIS = 6-31G*
GUI = 2
METHOD = B3LYP
PRINT_ORBITALS false
MOLDEN_FORMAT false
--------------------------------------------------------------
 ----------------------------------------------------------------
             Standard Nuclear Orientation (Angstroms)
    I     Atom           X                Y                Z
 ----------------------------------------------------------------
    1      C       4.5003638939     2.1804901867     0.0454251158
    2      C       3.2237115994     1.8282358228    -0.0419576233
    3      C       2.6888077377     0.4706613342    -0.0225955478
    4      C       3.5021522513    -0.6646443388    -0.0005683046
    5      C       2.9400103730    -1.9269637382     0.0170286669
    6      C       1.5672758244    -2.0833169865     0.0133591301
    7      C       0.7236194081    -0.9682936009    -0.0090449103
    8      C      -0.7103422959    -1.1804011125    -0.0126719227
    9      C      -1.6657698090    -0.2380251634    -0.0022498817
   10      C      -3.0675430081    -0.5575855665    -0.0061902942
   11      C      -4.0294419662     0.3582194463     0.0063111775
   12      F      -3.8476176104     1.6753577938     0.0238927630
   13      F      -5.3317666507     0.0882908137     0.0028398753
   14      C       1.3074167068     0.2983082163    -0.0291280544
   15      H       4.7968578422     3.2151074813     0.0237942438
   16      H       5.2993956263     1.4659488832     0.1439419376
   17      H       2.4729458186     2.6042275449    -0.1314988962
   18      H       4.5756798815    -0.5613658124    -0.0024500775
   19      H       3.5788480101    -2.7981374397     0.0326528978
   20      H       1.1379411174    -3.0748573078     0.0274961106
   21      H      -1.0177034931    -2.2194853091    -0.0217959763
   22      H      -1.4205597188     0.8134044051     0.0110862970
   23      H      -3.3691443612    -1.5935163313    -0.0201270743
   24      H       0.6786333349     1.1757294206    -0.0499985144
 ----------------------------------------------------------------
 Molecular Point Group                 C1    NOp =  1
 Largest Abelian Subgroup              C1    NOp =  1
 Nuclear Repulsion Energy =         766.62214119 hartrees
 There are       50 alpha and       50 beta electrons
 Requested basis set is 6-31G(d)
 There are 76 shells and 230 basis functions

 Total QAlloc Memory Limit   4000 MB
 Mega-Array Size       188 MB
 MEM_STATIC part       192 MB
 A cutoff of  1.0D-08 yielded   1741 shell pairs
 There are     16454 function pairs
 Smallest overlap matrix eigenvalue = 3.77E-04

 Scale SEOQF with 1.000000e-02/1.000000e-01/1.000000e+00

 Standard Electronic Orientation quadrupole field applied
 Nucleus-field energy     =     0.0000000172 hartrees
 Guess from superposition of atomic densities
 Warning:  Energy on first SCF cycle will be non-variational
 SAD guess density has 100.000000 electrons

 -----------------------------------------------------------------------
  General SCF calculation program by
  Eric Jon Sundstrom, Paul Horn, Yuezhi Mao, Dmitri Zuev, Alec White,
  David Stuck, Shaama M.S., Shane Yost, Joonho Lee, David Small,
  Daniel Levine, Susi Lehtola, Hugh Burton, Evgeny Epifanovsky,
  Bang C. Huynh
 -----------------------------------------------------------------------
 Exchange:     0.2000 Hartree-Fock + 0.0800 Slater + 0.7200 B88
 Correlation:  0.1900 VWN1RPA + 0.8100 LYP
 Using SG-1 standard quadrature grid
 A restricted SCF calculation will be
 performed using DIIS
 SCF converges when DIIS error is below 1.0e-05
 ---------------------------------------
  Cycle       Energy         DIIS error
 ---------------------------------------
    1    -666.0601293038      5.26e-02  
    2    -662.6707872590      5.92e-03  
    3    -662.4296222184      8.29e-03  
    4    -662.8955090039      1.83e-03  
    5    -662.9186958546      5.80e-04  
    6    -662.9202929679      3.50e-04  
    7    -662.9211389010      6.54e-05  
    8    -662.9211672712      2.20e-05  
    9    -662.9211704147      6.28e-06  Convergence criterion met
 ---------------------------------------
 SCF time:   CPU 32.38s  wall 32.00s 
 SCF   energy in the final basis set =     -662.9211704147
 Total energy in the final basis set =     -662.9211704147
 
 --------------------------------------------------------------
 
                    Orbital Energies (a.u.)
 --------------------------------------------------------------
 
 Alpha MOs
 -- Occupied --
-24.7412 -24.7372 -10.3566 -10.2039 -10.1999 -10.1975 -10.1963 -10.1931
-10.1907 -10.1889 -10.1879 -10.1876 -10.1870 -10.1806  -1.2842  -1.2251
 -0.8690  -0.8289  -0.7979  -0.7731  -0.7340  -0.7213  -0.6492  -0.6235
 -0.6193  -0.5865  -0.5696  -0.5445  -0.5284  -0.5184  -0.5097  -0.4837
 -0.4618  -0.4490  -0.4411  -0.4375  -0.4313  -0.4187  -0.4176  -0.4054
 -0.3847  -0.3775  -0.3687  -0.3471  -0.3380  -0.3359  -0.3022  -0.2698
 -0.2292  -0.2046
 -- Virtual --
 -0.0482  -0.0261   0.0244   0.0664   0.0928   0.0985   0.1003   0.1103
  0.1249   0.1277   0.1542   0.1552   0.1865   0.1883   0.1908   0.2042
  0.2153   0.2404   0.2684   0.2892   0.3027   0.3250   0.3446   0.3658
  0.3734   0.4213   0.4308   0.4420   0.4918   0.4988   0.5056   0.5136
  0.5406   0.5407   0.5568   0.5617   0.5643   0.5693   0.5738   0.5763
  0.5863   0.5890   0.6073   0.6133   0.6222   0.6270   0.6290   0.6308
  0.6444   0.6664   0.6914   0.6982   0.7181   0.7743   0.7921   0.8022
  0.8220   0.8267   0.8299   0.8521   0.8684   0.8734   0.8875   0.8963
  0.9014   0.9380   0.9539   0.9589   0.9707   0.9921   1.0026   1.0219
  1.0613   1.0662   1.0947   1.1053   1.1404   1.1599   1.1646   1.1700
  1.1904   1.2078   1.2291   1.2375   1.2473   1.2835   1.2961   1.3135
  1.3226   1.3578   1.3637   1.3900   1.4006   1.4464   1.4525   1.4560
  1.4796   1.4897   1.4977   1.5116   1.5178   1.5617   1.6011   1.6113
  1.6575   1.6780   1.7113   1.7790   1.7847   1.7859   1.7994   1.8258
  1.8342   1.8543   1.8713   1.8879   1.9189   1.9376   1.9503   1.9601
  1.9771   1.9890   1.9898   1.9976   2.0060   2.0380   2.0497   2.1146
  2.1220   2.1433   2.1673   2.1884   2.1939   2.1987   2.2266   2.2423
  2.2758   2.2861   2.3258   2.3363   2.3486   2.4091   2.4231   2.4897
  2.5269   2.5499   2.5580   2.5756   2.6201   2.6214   2.6664   2.6744
  2.6890   2.7081   2.8122   2.8544   2.8624   2.8849   2.9348   2.9858
  3.0302   3.0859   3.1570   3.2128   3.2746   3.4694   4.0775   4.0914
  4.0939   4.1149   4.1498   4.1527   4.2190   4.2530   4.3610   4.4174
  4.5159   4.7546   4.7789   5.2381
 --------------------------------------------------------------
 
          Ground-State Mulliken Net Atomic Charges

     Atom                 Charge (a.u.)
  ----------------------------------------
      1 C                    -0.354690
      2 C                    -0.109382
      3 C                     0.184063
      4 C                    -0.183868
      5 C                    -0.129608
      6 C                    -0.195364
      7 C                     0.189992
      8 C                    -0.203969
      9 C                    -0.105072
     10 C                    -0.226429
     11 C                     0.532408
     12 F                    -0.238423
     13 F                    -0.245103
     14 C                    -0.265948
     15 H                     0.145091
     16 H                     0.143354
     17 H                     0.127182
     18 H                     0.126900
     19 H                     0.130159
     20 H                     0.126616
     21 H                     0.122599
     22 H                     0.142671
     23 H                     0.159069
     24 H                     0.127752
  ----------------------------------------
  Sum of atomic charges =     0.000000

 -----------------------------------------------------------------
                    Cartesian Multipole Moments
 -----------------------------------------------------------------
    Charge (ESU x 10^10)
                 0.0000
    Dipole Moment (Debye)
         X       0.7838      Y      -0.7800      Z      -0.0088
       Tot       1.1058
    Quadrupole Moments (Debye-Ang)
        XX     -78.0703     XY       2.1280     YY     -72.2597
        XZ       0.2625     YZ      -0.1863     ZZ     -83.6661
    Octopole Moments (Debye-Ang^2)
       XXX      -6.1441    XXY      -7.8313    XYY     -14.3357
       YYY       5.8507    XXZ       1.6576    XYZ      -0.2770
       YYZ      -0.3218    XZZ     -35.1016    YZZ       6.3608
       ZZZ       0.2698
    Hexadecapole Moments (Debye-Ang^3)
      XXXX   -4594.2248   XXXY     -20.4756   XXYY    -879.5863
      XYYY     -32.1044   YYYY    -884.4552   XXXZ      10.3040
      XXYZ       0.7802   XYYZ      -0.3238   YYYZ      -1.8452
      XXZZ    -821.1281   XYZZ     -28.4904   YYZZ    -187.6584
      XZZZ      -1.1286   YZZZ       0.2685   ZZZZ     -82.0075
 -----------------------------------------------------------------
Archival summary:
1\1\nia0005.scinet.local\SP\ProcedureUnspecified\6-31G*\21210\rhickman\MonFeb708:26:482022MonFeb708:26:482022\0\\#,ProcedureUnspecified,6-31G*,\\0,1\F\C,1,1.32975\C,2,1.3282,1,125.737\H,3,1.07903,2,117.365,1,-179.991,0\F,2,1.33001,1,109.57,3,-179.991,0\C,3,1.43774,2,123.56,1,0.000974801,0\H,6,1.07973,3,115.97,2,-0.040665,0\C,6,1.34202,3,122.549,2,179.877,0\H,8,1.08363,6,118.13,3,-0.161145,0\C,8,1.44957,6,126.977,3,-179.956,0\C,10,1.39481,8,123.153,6,-1.74403,0\H,11,1.07966,10,119.637,8,-0.0948058,0\C,11,1.39212,10,121.849,8,179.881,0\C,13,1.39676,11,118.507,10,0.256042,0\H,14,1.07849,13,120.117,11,179.545,0\C,14,1.38194,13,120.384,11,-0.131189,0\H,16,1.08042,14,119.749,13,179.918,0\C,16,1.38161,14,120.497,13,-0.0133476,0\H,18,1.08059,16,119.905,14,-179.984,0\C,13,1.45928,11,118.61,10,-179.874,0\H,20,1.08343,13,114.419,11,-4.14057,0\C,20,1.32724,13,126.771,11,175.436,0\H,22,1.07644,20,122.946,13,-0.0360954,0\H,22,1.07648,20,121.245,13,-179.867,0\\\@

 Total job time:  32.69s(wall), 32.57s(cpu) 
 Mon Feb  7 08:26:48 2022

        *************************************************************
        *                                                           *
        *  Thank you very much for using Q-Chem.  Have a nice day.  *
        *                                                           *
        *************************************************************


