
Running Job 1 of 1 fragments/B016/conf-2/spe_input.inp
qchem fragments/B016/conf-2/spe_input.inp_150258.0 /gpfs/fs0/scratch/a/aspuru/rhickman/descriptor_computation/qchem150258/ 0
/scinet/niagara/software/commercial/qc52/exe/qcprog.exe_s fragments/B016/conf-2/spe_input.inp_150258.0 /gpfs/fs0/scratch/a/aspuru/rhickman/descriptor_computation/qchem150258/
                  Welcome to Q-Chem
     A Quantum Leap Into The Future Of Chemistry


 Q-Chem 5.2, Q-Chem, Inc., Pleasanton, CA (2019)

 License issued to: SRG Alan Aspuru-Guzik, University of Toronto

 Yihan Shao,  Zhengting Gan,  E. Epifanovsky,  A. T. B. Gilbert,  M. Wormit,  
 J. Kussmann,  A. W. Lange,  A. Behn,  Jia Deng,  Xintian Feng,  D. Ghosh,  
 M. Goldey,  P. R. Horn,  L. D. Jacobson,  I. Kaliman,  T. Kus,  A. Landau,  
 Jie Liu,  E. I. Proynov,  R. M. Richard,  R. P. Steele,  E. J. Sundstrom,  
 H. L. Woodcock III,  P. M. Zimmerman,  D. Zuev,  B. Albrecht,  E. Alguire,  
 S. A. Baeppler,  D. Barton,  Z. Benda,  Y. A. Bernard,  E. J. Berquist,  
 K. B. Bravaya,  H. Burton,  D. Casanova,  Chun-Min Chang,  Yunqing Chen,  
 A. Chien,  K. D. Closser,  M. P. Coons,  S. Coriani,  S. Dasgupta,  
 A. L. Dempwolff,  M. Diedenhofen,  Hainam Do,  R. G. Edgar,  Po-Tung Fang,  
 S. Faraji,  S. Fatehi,  Qingguo Feng,  K. D. Fenk,  J. Fosso-Tande,  
 J. Gayvert,  Qinghui Ge,  A. Ghysels,  G. Gidofalvi,  J. Gomes,  
 J. Gonthier,  A. Gunina,  D. Hait,  M. W. D. Hanson-Heine,  
 P. H. P. Harbach,  A. W. Hauser,  M. F. Herbst,  J. E. Herr,  
 E. G. Hohenstein,  Z. C. Holden,  Kerwin Hui,  B. C. Huynh,  T.-C. Jagau,  
 Hyunjun Ji,  B. Kaduk,  K. Khistyaev,  Jaehoon Kim,  P. Klunzinger,  K. Koh,  
 D. Kosenkov,  L. Koulias,  T. Kowalczyk,  C. M. Krauter,  A. Kunitsa,  
 Ka Un Lao,  A. Laurent,  K. V. Lawler,  Joonho Lee,  D. Lefrancois,  
 S. Lehtola,  D. S. Levine,  Yi-Pei Li,  You-Sheng Lin,  Fenglai Liu,  
 E. Livshits,  A. Luenser,  P. Manohar,  E. Mansoor,  S. F. Manzer,  
 Shan-Ping Mao,  Yuezhi Mao,  N. Mardirossian,  A. V. Marenich,  
 T. Markovich,  L. A. Martinez-Martinez,  S. A. Maurer,  N. J. Mayhall,  
 S. C. McKenzie,  J.-M. Mewes,  P. Morgante,  A. F. Morrison,  
 J. W. Mullinax,  K. Nanda,  T. S. Nguyen-Beck,  R. Olivares-Amaya,  
 J. A. Parkhill,  Zheng Pei,  T. M. Perrine,  F. Plasser,  P. Pokhilko,  
 S. Prager,  A. Prociuk,  E. Ramos,  D. R. Rehn,  F. Rob,  M. Scheurer,  
 M. Schneider,  N. Sergueev,  S. M. Sharada,  S. Sharma,  D. W. Small,  
 T. Stauch,  T. Stein,  Yu-Chuan Su,  A. J. W. Thom,  A. Tkatchenko,  
 T. Tsuchimochi,  N. M. Tubman,  L. Vogt,  M. L. Vidal,  O. Vydrov,  
 M. A. Watson,  J. Wenzel,  M. de Wergifosse,  T. A. Wesolowski,  A. White,  
 J. Witte,  A. Yamada,  Jun Yang,  K. Yao,  S. Yeganeh,  S. R. Yost,  
 Zhi-Qiang You,  A. Zech,  Igor Ying Zhang,  Xing Zhang,  Yan Zhao,  
 Ying Zhu,  B. R. Brooks,  G. K. L. Chan,  C. J. Cramer,  M. S. Gordon,  
 W. J. Hehre,  A. Klamt,  M. W. Schmidt,  C. D. Sherrill,  D. G. Truhlar,  
 A. Aspuru-Guzik,  R. Baer,  A. T. Bell,  N. A. Besley,  Jeng-Da Chai,  
 A. E. DePrince, III,  R. A. DiStasio Jr.,  A. Dreuw,  B. D. Dunietz,  
 T. R. Furlani,  Chao-Ping Hsu,  Yousung Jung,  Jing Kong,  D. S. Lambrecht,  
 WanZhen Liang,  C. Ochsenfeld,  V. A. Rassolov,  L. V. Slipchenko,  
 J. E. Subotnik,  T. Van Voorhis,  J. M. Herbert,  A. I. Krylov,  
 P. M. W. Gill,  M. Head-Gordon

 Contributors to earlier versions of Q-Chem not listed above: 
 R. D. Adamson,  B. Austin,  J. Baker,  G. J. O. Beran,  K. Brandhorst,  
 S. T. Brown,  E. F. C. Byrd,  A. K. Chakraborty,  C.-L. Cheng,  
 Siu Hung Chien,  D. M. Chipman,  D. L. Crittenden,  H. Dachsel,  
 R. J. Doerksen,  A. D. Dutoi,  L. Fusti-Molnar,  W. A. Goddard III,  
 A. Golubeva-Zadorozhnaya,  S. R. Gwaltney,  G. Hawkins,  A. Heyden,  
 S. Hirata,  G. Kedziora,  F. J. Keil,  C. Kelley,  Jihan Kim,  R. A. King,  
 R. Z. Khaliullin,  P. P. Korambath,  W. Kurlancheek,  A. M. Lee,  M. S. Lee,  
 S. V. Levchenko,  Ching Yeh Lin,  D. Liotard,  R. C. Lochan,  I. Lotan,  
 P. E. Maslen,  N. Nair,  D. P. O'Neill,  D. Neuhauser,  E. Neuscamman,  
 C. M. Oana,  R. Olson,  B. Peters,  R. Peverati,  P. A. Pieniazek,  
 Y. M. Rhee,  J. Ritchie,  M. A. Rohrdanz,  E. Rosta,  N. J. Russ,  
 H. F. Schaefer III,  N. E. Schultz,  N. Shenvi,  A. C. Simmonett,  A. Sodt,  
 D. Stuck,  K. S. Thanthiriwatte,  V. Vanovschi,  Tao Wang,  A. Warshel,  
 C. F. Williams,  Q. Wu,  X. Xu,  W. Zhang

 Please cite Q-Chem as follows:
 Y. Shao et al., Mol. Phys. 113, 184-215 (2015)
 DOI: 10.1080/00268976.2014.952696

 Q-Chem 5.2.1 for Intel X86 EM64T Linux

 Parts of Q-Chem use Armadillo 8.300.2 (Tropical Shenanigans).
 http://arma.sourceforge.net/

 Q-Chem begins on Mon Feb  7 17:38:38 2022  

Host: 
0

     Scratch files written to /gpfs/fs0/scratch/a/aspuru/rhickman/descriptor_computation/qchem150258//
 Jul1719 |scratch|qcdevops|jenkins|workspace|build_RNUM -1
Processing $rem in /scinet/niagara/software/commercial/qc52/config/preferences:
	 MEM_TOTAL  4000 
NAlpha2: 102
NElect   102
Mult     1

Checking the input file for inconsistencies... 	...done.

--------------------------------------------------------------
User input:
--------------------------------------------------------------
$molecule
0 1
C        -2.30139919410000    3.99500474650000   -0.02032700700000
C        -1.10692259600000    3.41821498880000    0.02658522450000
C        -0.82958963560000    1.98574973760000    0.01671190170000
C        -1.83956017000000    1.02310222530000    0.00322008840000
C        -1.50611614210000   -0.31856131980000   -0.00657223840000
Cl       -2.76902075830000   -1.50056438390000   -0.02252227840000
C        -0.18932330930000   -0.74494103680000   -0.00346694600000
C         0.83279965080000    0.20496073490000    0.01120534210000
C         2.24456887780000   -0.14729776160000    0.01655487370000
C         2.79365675010000   -1.35313518960000    0.00434767860000
F         2.18380495510000   -2.52973230120000   -0.01589872820000
F         4.10948644170000   -1.54955089990000    0.01091031480000
C         0.49583540520000    1.55745706960000    0.02204790810000
H        -2.40329904790000    5.06639510890000   -0.00943860460000
H        -3.21989021750000    3.43673867850000   -0.07295527420000
H        -0.22430091520000    4.04387518300000    0.07392529420000
H        -2.87744709740000    1.31118984950000    0.00271368940000
H         0.02508567920000   -1.79981486790000   -0.01142756070000
H         2.94562907360000    0.67461914930000    0.03208831430000
H         1.28522419310000    2.29516103730000    0.03351057630000
$end

$rem
BASIS = 6-31G*
GUI = 2
METHOD = B3LYP
PRINT_ORBITALS false
MOLDEN_FORMAT false
--------------------------------------------------------------
 ----------------------------------------------------------------
             Standard Nuclear Orientation (Angstroms)
    I     Atom           X                Y                Z
 ----------------------------------------------------------------
    1      C       4.1211060751     1.8190162509     0.0304154218
    2      C       2.8154309337     2.0535191306    -0.0129706366
    3      C       1.7501029248     1.0565063778    -0.0098797743
    4      C       2.0027609829    -0.3157445316    -0.0078575104
    5      C       0.9453022876    -1.2063106681    -0.0039920167
    6      Cl      1.2739872174    -2.9046265758    -0.0022567259
    7      C      -0.3710613735    -0.7786012381    -0.0019856305
    8      C      -0.6410409473     0.5904731725    -0.0051927254
    9      C      -1.9907946389     1.1339540217    -0.0044479822
   10      C      -3.1431125347     0.4799015493     0.0038730842
   11      F      -3.3399676053    -0.8307705029     0.0137089663
   12      F      -4.3237196370     1.0932504178     0.0037626712
   13      C       0.4256249299     1.4877518157    -0.0100653544
   14      H       4.8324616026     2.6266830505     0.0252096116
   15      H       4.5371081619     0.8275233781     0.0744681656
   16      H       2.4680336801     3.0784775289    -0.0515481199
   17      H       3.0121434827    -0.6916920189    -0.0116608759
   18      H      -1.1638144731    -1.5068366116     0.0010391357
   19      H      -2.0759622626     2.2109758660    -0.0111201031
   20      H       0.2195204566     2.5484060777    -0.0126494635
 ----------------------------------------------------------------
 Molecular Point Group                 C1    NOp =  1
 Largest Abelian Subgroup              C1    NOp =  1
 Nuclear Repulsion Energy =         807.22165318 hartrees
 There are       51 alpha and       51 beta electrons
 Requested basis set is 6-31G(d)
 There are 67 shells and 213 basis functions

 Total QAlloc Memory Limit   4000 MB
 Mega-Array Size       188 MB
 MEM_STATIC part       192 MB
 A cutoff of  1.0D-08 yielded   1506 shell pairs
 There are     15989 function pairs
 Smallest overlap matrix eigenvalue = 3.73E-04

 Scale SEOQF with 1.000000e-01/1.000000e-01/1.000000e+00

 Standard Electronic Orientation quadrupole field applied
 Nucleus-field energy     =     0.0000000431 hartrees
 Guess from superposition of atomic densities
 Warning:  Energy on first SCF cycle will be non-variational
 SAD guess density has 102.000000 electrons

 -----------------------------------------------------------------------
  General SCF calculation program by
  Eric Jon Sundstrom, Paul Horn, Yuezhi Mao, Dmitri Zuev, Alec White,
  David Stuck, Shaama M.S., Shane Yost, Joonho Lee, David Small,
  Daniel Levine, Susi Lehtola, Hugh Burton, Evgeny Epifanovsky,
  Bang C. Huynh
 -----------------------------------------------------------------------
 Exchange:     0.2000 Hartree-Fock + 0.0800 Slater + 0.7200 B88
 Correlation:  0.1900 VWN1RPA + 0.8100 LYP
 Using SG-1 standard quadrature grid
 A restricted SCF calculation will be
 performed using DIIS
 SCF converges when DIIS error is below 1.0e-05
 ---------------------------------------
  Cycle       Energy         DIIS error
 ---------------------------------------
    1   -1048.0191138723      5.35e-02  
    2   -1044.9111185533      5.84e-03  
    3   -1044.7140883039      8.21e-03  
    4   -1045.0967351953      1.53e-03  
    5   -1045.1096332773      5.17e-04  
    6   -1045.1108127332      2.55e-04  
    7   -1045.1111872410      5.86e-05  
    8   -1045.1112067414      1.92e-05  
    9   -1045.1112087768      5.13e-06  Convergence criterion met
 ---------------------------------------
 SCF time:   CPU 27.82s  wall 28.00s 
 SCF   energy in the final basis set =    -1045.1112087768
 Total energy in the final basis set =    -1045.1112087768
 
 --------------------------------------------------------------
 
                    Orbital Energies (a.u.)
 --------------------------------------------------------------
 
 Alpha MOs
 -- Occupied --
******** -24.7526 -24.7416 -10.3658 -10.2531 -10.2198 -10.2112 -10.2107
-10.2013 -10.2011 -10.2002 -10.1997 -10.1899  -9.4664  -7.2301  -7.2208
 -7.2204  -1.2941  -1.2327  -0.9030  -0.8574  -0.8246  -0.7837  -0.7425
 -0.7369  -0.6611  -0.6362  -0.6094  -0.5806  -0.5735  -0.5328  -0.5272
 -0.5170  -0.4857  -0.4727  -0.4550  -0.4484  -0.4398  -0.4362  -0.4244
 -0.4187  -0.4089  -0.3838  -0.3689  -0.3586  -0.3524  -0.3288  -0.3138
 -0.2775  -0.2385  -0.2288
 -- Virtual --
 -0.0505  -0.0244   0.0245   0.0392   0.0815   0.0829   0.1113   0.1130
  0.1441   0.1569   0.1650   0.1711   0.1952   0.2000   0.2147   0.2540
  0.2765   0.2929   0.3089   0.3466   0.3671   0.3887   0.4026   0.4061
  0.4338   0.4412   0.4513   0.4828   0.4916   0.5128   0.5230   0.5307
  0.5441   0.5515   0.5565   0.5583   0.5707   0.5768   0.5849   0.5986
  0.6151   0.6209   0.6307   0.6359   0.6613   0.6881   0.6891   0.7555
  0.7568   0.7723   0.7736   0.8105   0.8194   0.8260   0.8561   0.8581
  0.8733   0.8805   0.8844   0.9169   0.9298   0.9367   0.9637   0.9647
  0.9847   0.9985   1.0371   1.0811   1.0988   1.1055   1.1213   1.1439
  1.1535   1.1729   1.1927   1.2057   1.2219   1.2395   1.2437   1.2958
  1.3081   1.3327   1.3748   1.3960   1.4024   1.4256   1.4473   1.4491
  1.4506   1.4768   1.5000   1.5033   1.5254   1.5489   1.5751   1.6466
  1.6683   1.7116   1.7633   1.7752   1.7774   1.8162   1.8297   1.8353
  1.8616   1.8691   1.8846   1.9413   1.9579   1.9734   1.9823   1.9882
  2.0110   2.0222   2.0250   2.0315   2.0949   2.1338   2.1511   2.1672
  2.1777   2.2042   2.2176   2.2581   2.2819   2.3141   2.3348   2.3443
  2.4270   2.5035   2.5113   2.5181   2.5716   2.5945   2.6280   2.6502
  2.6818   2.6898   2.7062   2.7898   2.8359   2.8920   2.9073   2.9620
  3.0458   3.1282   3.1601   3.3114   3.4406   4.0651   4.0683   4.0841
  4.1147   4.1426   4.2274   4.2455   4.2835   4.4047   4.4835   4.7147
  4.8082   5.2950
 --------------------------------------------------------------
 
          Ground-State Mulliken Net Atomic Charges

     Atom                 Charge (a.u.)
  ----------------------------------------
      1 C                    -0.350364
      2 C                    -0.110150
      3 C                     0.182388
      4 C                    -0.185934
      5 C                    -0.069558
      6 Cl                   -0.014292
      7 C                    -0.196604
      8 C                     0.200855
      9 C                    -0.296247
     10 C                     0.549643
     11 F                    -0.229800
     12 F                    -0.244530
     13 C                    -0.268555
     14 H                     0.150152
     15 H                     0.149086
     16 H                     0.130982
     17 H                     0.148705
     18 H                     0.159828
     19 H                     0.163029
     20 H                     0.131365
  ----------------------------------------
  Sum of atomic charges =     0.000000

 -----------------------------------------------------------------
                    Cartesian Multipole Moments
 -----------------------------------------------------------------
    Charge (ESU x 10^10)
                 0.0000
    Dipole Moment (Debye)
         X       0.5548      Y       2.1892      Z      -0.0055
       Tot       2.2584
    Quadrupole Moments (Debye-Ang)
        XX     -76.7936     XY       2.1081     YY     -77.1082
        XZ       0.0826     YZ      -0.0963     ZZ     -82.4311
    Octopole Moments (Debye-Ang^2)
       XXX      -8.2295    XXY       1.5162    XYY     -17.2346
       YYY      12.3969    XXZ       0.5219    XYZ      -0.1324
       YYZ      -0.2970    XZZ     -26.0249    YZZ      -7.0441
       ZZZ       0.1603
    Hexadecapole Moments (Debye-Ang^3)
      XXXX   -2743.7752   XXXY      21.7646   XXYY    -667.4326
      XYYY      -4.1562   YYYY   -1295.1256   XXXZ       2.7552
      XXYZ      -0.0127   XYYZ      -0.7568   YYYZ      -1.2532
      XXZZ    -496.9734   XYZZ     -18.0726   YYZZ    -252.0212
      XZZZ      -0.7219   YZZZ      -0.1378   ZZZZ     -81.0824
 -----------------------------------------------------------------
Archival summary:
1\1\nia1977.scinet.local\SP\ProcedureUnspecified\6-31G*\l12107\rhickman\MonFeb717:39:062022MonFeb717:39:062022\0\\#,ProcedureUnspecified,6-31G*,\\0,1\Cl\C,1,1.72983\C,2,1.38251,1,119.15\H,3,1.07713,2,119.469,1,0.11832,0\C,2,1.38411,1,118.953,3,179.975,0\H,5,1.07647,2,119.429,1,0.0263558,0\C,3,1.39532,2,119.671,1,179.972,0\C,7,1.39292,3,118.467,2,-0.100721,0\H,8,1.0805,7,119.032,3,-179.938,0\C,8,1.39388,7,121.894,3,0.150335,0\C,10,1.45506,8,117.997,7,179.94,0\H,11,1.0804,10,116.453,8,0.198561,0\C,11,1.32502,10,128.488,8,-179.775,0\F,13,1.32541,11,128.122,10,0.00950527,0\F,13,1.33042,11,122.967,10,179.99,0\C,7,1.4591,3,122.67,2,179.954,0\H,16,1.08292,7,114.368,3,177.835,0\C,16,1.32728,7,126.687,3,-2.40588,0\H,18,1.07613,16,122.984,7,-0.0339376,0\H,18,1.07628,16,121.161,7,-179.91,0\\\@

 Total job time:  28.10s(wall), 28.00s(cpu) 
 Mon Feb  7 17:39:06 2022

        *************************************************************
        *                                                           *
        *  Thank you very much for using Q-Chem.  Have a nice day.  *
        *                                                           *
        *************************************************************


