
Running Job 1 of 1 fragments/B026/conf-2/spe_input.inp
qchem fragments/B026/conf-2/spe_input.inp_352166.0 /gpfs/fs0/scratch/a/aspuru/rhickman/descriptor_computation/qchem352166/ 0
/scinet/niagara/software/commercial/qc52/exe/qcprog.exe_s fragments/B026/conf-2/spe_input.inp_352166.0 /gpfs/fs0/scratch/a/aspuru/rhickman/descriptor_computation/qchem352166/
                  Welcome to Q-Chem
     A Quantum Leap Into The Future Of Chemistry


 Q-Chem 5.2, Q-Chem, Inc., Pleasanton, CA (2019)

 License issued to: SRG Alan Aspuru-Guzik, University of Toronto

 Yihan Shao,  Zhengting Gan,  E. Epifanovsky,  A. T. B. Gilbert,  M. Wormit,  
 J. Kussmann,  A. W. Lange,  A. Behn,  Jia Deng,  Xintian Feng,  D. Ghosh,  
 M. Goldey,  P. R. Horn,  L. D. Jacobson,  I. Kaliman,  T. Kus,  A. Landau,  
 Jie Liu,  E. I. Proynov,  R. M. Richard,  R. P. Steele,  E. J. Sundstrom,  
 H. L. Woodcock III,  P. M. Zimmerman,  D. Zuev,  B. Albrecht,  E. Alguire,  
 S. A. Baeppler,  D. Barton,  Z. Benda,  Y. A. Bernard,  E. J. Berquist,  
 K. B. Bravaya,  H. Burton,  D. Casanova,  Chun-Min Chang,  Yunqing Chen,  
 A. Chien,  K. D. Closser,  M. P. Coons,  S. Coriani,  S. Dasgupta,  
 A. L. Dempwolff,  M. Diedenhofen,  Hainam Do,  R. G. Edgar,  Po-Tung Fang,  
 S. Faraji,  S. Fatehi,  Qingguo Feng,  K. D. Fenk,  J. Fosso-Tande,  
 J. Gayvert,  Qinghui Ge,  A. Ghysels,  G. Gidofalvi,  J. Gomes,  
 J. Gonthier,  A. Gunina,  D. Hait,  M. W. D. Hanson-Heine,  
 P. H. P. Harbach,  A. W. Hauser,  M. F. Herbst,  J. E. Herr,  
 E. G. Hohenstein,  Z. C. Holden,  Kerwin Hui,  B. C. Huynh,  T.-C. Jagau,  
 Hyunjun Ji,  B. Kaduk,  K. Khistyaev,  Jaehoon Kim,  P. Klunzinger,  K. Koh,  
 D. Kosenkov,  L. Koulias,  T. Kowalczyk,  C. M. Krauter,  A. Kunitsa,  
 Ka Un Lao,  A. Laurent,  K. V. Lawler,  Joonho Lee,  D. Lefrancois,  
 S. Lehtola,  D. S. Levine,  Yi-Pei Li,  You-Sheng Lin,  Fenglai Liu,  
 E. Livshits,  A. Luenser,  P. Manohar,  E. Mansoor,  S. F. Manzer,  
 Shan-Ping Mao,  Yuezhi Mao,  N. Mardirossian,  A. V. Marenich,  
 T. Markovich,  L. A. Martinez-Martinez,  S. A. Maurer,  N. J. Mayhall,  
 S. C. McKenzie,  J.-M. Mewes,  P. Morgante,  A. F. Morrison,  
 J. W. Mullinax,  K. Nanda,  T. S. Nguyen-Beck,  R. Olivares-Amaya,  
 J. A. Parkhill,  Zheng Pei,  T. M. Perrine,  F. Plasser,  P. Pokhilko,  
 S. Prager,  A. Prociuk,  E. Ramos,  D. R. Rehn,  F. Rob,  M. Scheurer,  
 M. Schneider,  N. Sergueev,  S. M. Sharada,  S. Sharma,  D. W. Small,  
 T. Stauch,  T. Stein,  Yu-Chuan Su,  A. J. W. Thom,  A. Tkatchenko,  
 T. Tsuchimochi,  N. M. Tubman,  L. Vogt,  M. L. Vidal,  O. Vydrov,  
 M. A. Watson,  J. Wenzel,  M. de Wergifosse,  T. A. Wesolowski,  A. White,  
 J. Witte,  A. Yamada,  Jun Yang,  K. Yao,  S. Yeganeh,  S. R. Yost,  
 Zhi-Qiang You,  A. Zech,  Igor Ying Zhang,  Xing Zhang,  Yan Zhao,  
 Ying Zhu,  B. R. Brooks,  G. K. L. Chan,  C. J. Cramer,  M. S. Gordon,  
 W. J. Hehre,  A. Klamt,  M. W. Schmidt,  C. D. Sherrill,  D. G. Truhlar,  
 A. Aspuru-Guzik,  R. Baer,  A. T. Bell,  N. A. Besley,  Jeng-Da Chai,  
 A. E. DePrince, III,  R. A. DiStasio Jr.,  A. Dreuw,  B. D. Dunietz,  
 T. R. Furlani,  Chao-Ping Hsu,  Yousung Jung,  Jing Kong,  D. S. Lambrecht,  
 WanZhen Liang,  C. Ochsenfeld,  V. A. Rassolov,  L. V. Slipchenko,  
 J. E. Subotnik,  T. Van Voorhis,  J. M. Herbert,  A. I. Krylov,  
 P. M. W. Gill,  M. Head-Gordon

 Contributors to earlier versions of Q-Chem not listed above: 
 R. D. Adamson,  B. Austin,  J. Baker,  G. J. O. Beran,  K. Brandhorst,  
 S. T. Brown,  E. F. C. Byrd,  A. K. Chakraborty,  C.-L. Cheng,  
 Siu Hung Chien,  D. M. Chipman,  D. L. Crittenden,  H. Dachsel,  
 R. J. Doerksen,  A. D. Dutoi,  L. Fusti-Molnar,  W. A. Goddard III,  
 A. Golubeva-Zadorozhnaya,  S. R. Gwaltney,  G. Hawkins,  A. Heyden,  
 S. Hirata,  G. Kedziora,  F. J. Keil,  C. Kelley,  Jihan Kim,  R. A. King,  
 R. Z. Khaliullin,  P. P. Korambath,  W. Kurlancheek,  A. M. Lee,  M. S. Lee,  
 S. V. Levchenko,  Ching Yeh Lin,  D. Liotard,  R. C. Lochan,  I. Lotan,  
 P. E. Maslen,  N. Nair,  D. P. O'Neill,  D. Neuhauser,  E. Neuscamman,  
 C. M. Oana,  R. Olson,  B. Peters,  R. Peverati,  P. A. Pieniazek,  
 Y. M. Rhee,  J. Ritchie,  M. A. Rohrdanz,  E. Rosta,  N. J. Russ,  
 H. F. Schaefer III,  N. E. Schultz,  N. Shenvi,  A. C. Simmonett,  A. Sodt,  
 D. Stuck,  K. S. Thanthiriwatte,  V. Vanovschi,  Tao Wang,  A. Warshel,  
 C. F. Williams,  Q. Wu,  X. Xu,  W. Zhang

 Please cite Q-Chem as follows:
 Y. Shao et al., Mol. Phys. 113, 184-215 (2015)
 DOI: 10.1080/00268976.2014.952696

 Q-Chem 5.2.1 for Intel X86 EM64T Linux

 Parts of Q-Chem use Armadillo 8.300.2 (Tropical Shenanigans).
 http://arma.sourceforge.net/

 Q-Chem begins on Tue Feb  8 16:12:48 2022  

Host: 
0

     Scratch files written to /gpfs/fs0/scratch/a/aspuru/rhickman/descriptor_computation/qchem352166//
 Jul1719 |scratch|qcdevops|jenkins|workspace|build_RNUM -1
Processing $rem in /scinet/niagara/software/commercial/qc52/config/preferences:
	 MEM_TOTAL  4000 
NAlpha2: 86
NElect   86
Mult     1

Checking the input file for inconsistencies... 	...done.

--------------------------------------------------------------
User input:
--------------------------------------------------------------
$molecule
0 1
C         0.01547948070000    2.53155298810000    0.14506180260000
C         0.67933797980000    1.68426520690000   -0.62667867280000
C         1.09642410580000    0.33726403150000   -0.22839967430000
N         2.32734295300000    0.01090769810000   -0.60808520220000
C         2.85789748870000   -1.12759878300000   -0.21227596810000
C         2.19833321390000   -2.01948287890000    0.62111426100000
C         0.89704450730000   -1.72135728550000    0.98181770280000
C         0.30325760220000   -0.54312857490000    0.53228654370000
C        -1.10825262590000   -0.31590585610000    0.84477247450000
C        -2.02247123640000    0.09203023990000   -0.01791582330000
F        -1.82927301710000    0.40066604530000   -1.29290177050000
F        -3.30971034730000    0.24604859130000    0.28341846390000
H        -0.21563071960000    3.52926559350000   -0.18576372920000
H        -0.31232305420000    2.27001503710000    1.13826435650000
H         1.04631971650000    1.99154142480000   -1.59552429070000
H         3.85932223040000   -1.32514334090000   -0.57119038310000
H         2.67725808220000   -2.92480848700000    0.95872666810000
H         0.32542933950000   -2.40670888570000    1.59179207320000
H        -1.45183778330000   -0.57764511360000    1.83465005270000
$end

$rem
BASIS = 6-31G*
GUI = 2
METHOD = B3LYP
PRINT_ORBITALS false
MOLDEN_FORMAT false
--------------------------------------------------------------
 ----------------------------------------------------------------
             Standard Nuclear Orientation (Angstroms)
    I     Atom           X                Y                Z
 ----------------------------------------------------------------
    1      C       0.9307936516     2.1400370566    -0.9909562207
    2      C       0.0461150934     1.9072675496    -0.0331721857
    3      C      -0.8355802759     0.7385724049     0.0281800610
    4      N      -2.0844802201     1.0136850285     0.3892794080
    5      C      -2.9987757369     0.0660254800     0.3704336941
    6      C      -2.7329469383    -1.2326146381    -0.0393106658
    7      C      -1.4273477371    -1.5496905476    -0.3667426950
    8      C      -0.4375702139    -0.5701256916    -0.3061028268
    9      C       0.9482658299    -0.9695246880    -0.5542512624
   10      C       1.9848475020    -0.6221357880     0.1882162552
   11      F       1.9693578254     0.1667683326     1.2538433647
   12      F       3.2292240393    -1.0384182986    -0.0348183575
   13      H       1.5126850176     3.0452099466    -1.0097279422
   14      H       1.1012016666     1.4461671150    -1.7983059141
   15      H      -0.1459063889     2.6456681479     0.7321045010
   16      H      -3.9886913986     0.3667146858     0.6872110721
   17      H      -3.5143224308    -1.9747152693    -0.0805976681
   18      H      -1.1611554002    -2.5590442818    -0.6475738321
   19      H       1.1335066446    -1.6678126770    -1.3570560607
 ----------------------------------------------------------------
 Molecular Point Group                 C1    NOp =  1
 Largest Abelian Subgroup              C1    NOp =  1
 Nuclear Repulsion Energy =         666.61112772 hartrees
 There are       43 alpha and       43 beta electrons
 Requested basis set is 6-31G(d)
 There are 62 shells and 194 basis functions

 Total QAlloc Memory Limit   4000 MB
 Mega-Array Size       188 MB
 MEM_STATIC part       192 MB
 A cutoff of  1.0D-08 yielded   1452 shell pairs
 There are     15360 function pairs
 Smallest overlap matrix eigenvalue = 6.59E-04

 Scale SEOQF with 1.000000e-01/1.000000e-01/1.000000e-01

 Standard Electronic Orientation quadrupole field applied
 Nucleus-field energy     =     0.0000000184 hartrees
 Guess from superposition of atomic densities
 Warning:  Energy on first SCF cycle will be non-variational
 SAD guess density has 86.000000 electrons

 -----------------------------------------------------------------------
  General SCF calculation program by
  Eric Jon Sundstrom, Paul Horn, Yuezhi Mao, Dmitri Zuev, Alec White,
  David Stuck, Shaama M.S., Shane Yost, Joonho Lee, David Small,
  Daniel Levine, Susi Lehtola, Hugh Burton, Evgeny Epifanovsky,
  Bang C. Huynh
 -----------------------------------------------------------------------
 Exchange:     0.2000 Hartree-Fock + 0.0800 Slater + 0.7200 B88
 Correlation:  0.1900 VWN1RPA + 0.8100 LYP
 Using SG-1 standard quadrature grid
 A restricted SCF calculation will be
 performed using DIIS
 SCF converges when DIIS error is below 1.0e-05
 ---------------------------------------
  Cycle       Energy         DIIS error
 ---------------------------------------
    1    -604.2637646665      5.75e-02  
    2    -601.3581970817      6.22e-03  
    3    -601.2297979086      8.24e-03  
    4    -601.5309719252      1.48e-03  
    5    -601.5409020976      4.29e-04  
    6    -601.5415217302      2.25e-04  
    7    -601.5417475827      5.83e-05  
    8    -601.5417628665      1.90e-05  
    9    -601.5417644318      4.64e-06  Convergence criterion met
 ---------------------------------------
 SCF time:   CPU 24.31s  wall 24.00s 
 SCF   energy in the final basis set =     -601.5417644318
 Total energy in the final basis set =     -601.5417644318
 
 --------------------------------------------------------------
 
                    Orbital Energies (a.u.)
 --------------------------------------------------------------
 
 Alpha MOs
 -- Occupied --
-24.7400 -24.7364 -14.3252 -10.3580 -10.2299 -10.2204 -10.2142 -10.2086
-10.2045 -10.1985 -10.1879 -10.1819  -1.2843  -1.2243  -0.9523  -0.8364
 -0.8061  -0.7747  -0.7376  -0.6599  -0.6365  -0.6198  -0.5767  -0.5733
 -0.5343  -0.5201  -0.5086  -0.4859  -0.4722  -0.4421  -0.4413  -0.4404
 -0.4280  -0.4149  -0.4104  -0.4004  -0.3824  -0.3560  -0.3069  -0.2958
 -0.2651  -0.2526  -0.2241
 -- Virtual --
 -0.0396  -0.0279   0.0383   0.0462   0.0920   0.1176   0.1302   0.1446
  0.1568   0.1605   0.1739   0.1818   0.1839   0.2060   0.2647   0.2803
  0.3123   0.3231   0.3376   0.3593   0.4006   0.4161   0.4384   0.4643
  0.4833   0.5025   0.5198   0.5224   0.5395   0.5626   0.5653   0.5795
  0.5881   0.5960   0.6027   0.6147   0.6384   0.6542   0.6645   0.6690
  0.6836   0.6856   0.7145   0.7500   0.7909   0.8175   0.8260   0.8375
  0.8469   0.8665   0.8766   0.8846   0.8950   0.9092   0.9317   0.9424
  0.9617   0.9846   1.0215   1.0272   1.0718   1.0755   1.1037   1.1174
  1.1478   1.1655   1.1861   1.1895   1.2415   1.2681   1.2743   1.3022
  1.3376   1.3551   1.3926   1.4096   1.4246   1.4468   1.4628   1.4899
  1.5065   1.5190   1.5352   1.5605   1.6135   1.6545   1.6794   1.7107
  1.7334   1.7571   1.7925   1.8082   1.8268   1.8433   1.8452   1.8593
  1.8807   1.9027   1.9483   1.9726   1.9895   1.9996   2.0098   2.0355
  2.0456   2.0879   2.1272   2.1605   2.1626   2.1893   2.2064   2.2323
  2.2399   2.2777   2.3272   2.3430   2.3513   2.3809   2.4155   2.4946
  2.5150   2.5421   2.5721   2.5956   2.6187   2.6607   2.6916   2.7146
  2.7456   2.7614   2.8123   2.8860   2.8923   2.9689   3.0197   3.1223
  3.1451   3.2894   3.4562   4.0634   4.0994   4.1270   4.1607   4.2116
  4.2236   4.2921   4.3856   4.4642   4.7047   4.7950   5.2697
 --------------------------------------------------------------
 
          Ground-State Mulliken Net Atomic Charges

     Atom                 Charge (a.u.)
  ----------------------------------------
      1 C                    -0.335205
      2 C                    -0.092428
      3 C                     0.222518
      4 N                    -0.468132
      5 C                     0.043222
      6 C                    -0.145651
      7 C                    -0.140295
      8 C                     0.129137
      9 C                    -0.358090
     10 C                     0.586070
     11 F                    -0.230103
     12 F                    -0.245858
     13 H                     0.148178
     14 H                     0.149461
     15 H                     0.149724
     16 H                     0.140927
     17 H                     0.137786
     18 H                     0.141271
     19 H                     0.167468
  ----------------------------------------
  Sum of atomic charges =     0.000000

 -----------------------------------------------------------------
                    Cartesian Multipole Moments
 -----------------------------------------------------------------
    Charge (ESU x 10^10)
                -0.0000
    Dipole Moment (Debye)
         X      -0.2793      Y      -1.8574      Z      -1.0152
       Tot       2.1351
    Quadrupole Moments (Debye-Ang)
        XX     -65.9649     XY       6.0303     YY     -63.5662
        XZ      -1.5945     YZ       1.2250     ZZ     -66.8748
    Octopole Moments (Debye-Ang^2)
       XXX       8.1992    XXY     -10.8033    XYY      18.0171
       YYY     -10.7574    XXZ       3.6276    XYZ      -1.3442
       YYZ       0.3935    XZZ      17.3872    YZZ      -3.0154
       ZZZ       9.0545
    Hexadecapole Moments (Debye-Ang^3)
      XXXX   -1458.1058   XXXY      20.6537   XXYY    -367.6431
      XYYY      12.7452   YYYY    -668.3689   XXXZ       0.7513
      XXYZ      -3.1737   XYYZ       5.0577   YYYZ      16.7722
      XXZZ    -292.4310   XYZZ     -10.7644   YYZZ    -148.6915
      XZZZ      13.8771   YZZZ       6.0450   ZZZZ    -194.8914
 -----------------------------------------------------------------
Archival summary:
1\1\nia2015.scinet.local\SP\ProcedureUnspecified\6-31G*\2197\rhickman\TueFeb816:13:122022TueFeb816:13:122022\0\\#,ProcedureUnspecified,6-31G*,\\0,1\F\C,1,1.32596\C,2,1.32153,1,126.781\H,3,1.08001,2,116.939,1,-176.665,0\F,2,1.33098,1,109.371,3,-179.584,0\C,3,1.46343,2,125.154,1,-1.95215,0\C,6,1.39387,3,118.246,2,-133.268,0\H,7,1.08098,6,119.514,3,-3.43425,0\C,7,1.38287,6,119.932,3,175.107,0\H,9,1.07841,7,121.146,6,179.922,0\C,9,1.38745,7,117.738,6,-1.36277,0\H,11,1.08199,9,121.458,7,-176.95,0\N,11,1.31695,9,123.007,7,3.79475,0\C,13,1.32885,11,119.975,9,-1.2705,0\C,14,1.46526,13,114.317,11,174.209,0\H,15,1.08063,14,114.106,13,36.4494,0\C,15,1.32446,14,124.917,13,-137.645,0\H,17,1.07624,15,121.438,14,176.556,0\H,17,1.0781,15,122.277,14,-2.66987,0\\\@

 Total job time:  24.55s(wall), 24.47s(cpu) 
 Tue Feb  8 16:13:12 2022

        *************************************************************
        *                                                           *
        *  Thank you very much for using Q-Chem.  Have a nice day.  *
        *                                                           *
        *************************************************************


