
Running Job 1 of 1 fragments/C087/conf-1/spe_input.inp
qchem fragments/C087/conf-1/spe_input.inp_251887.0 /gpfs/fs0/scratch/a/aspuru/rhickman/descriptor_computation/qchem251887/ 0
/scinet/niagara/software/commercial/qc52/exe/qcprog.exe_s fragments/C087/conf-1/spe_input.inp_251887.0 /gpfs/fs0/scratch/a/aspuru/rhickman/descriptor_computation/qchem251887/
                  Welcome to Q-Chem
     A Quantum Leap Into The Future Of Chemistry


 Q-Chem 5.2, Q-Chem, Inc., Pleasanton, CA (2019)

 License issued to: SRG Alan Aspuru-Guzik, University of Toronto

 Yihan Shao,  Zhengting Gan,  E. Epifanovsky,  A. T. B. Gilbert,  M. Wormit,  
 J. Kussmann,  A. W. Lange,  A. Behn,  Jia Deng,  Xintian Feng,  D. Ghosh,  
 M. Goldey,  P. R. Horn,  L. D. Jacobson,  I. Kaliman,  T. Kus,  A. Landau,  
 Jie Liu,  E. I. Proynov,  R. M. Richard,  R. P. Steele,  E. J. Sundstrom,  
 H. L. Woodcock III,  P. M. Zimmerman,  D. Zuev,  B. Albrecht,  E. Alguire,  
 S. A. Baeppler,  D. Barton,  Z. Benda,  Y. A. Bernard,  E. J. Berquist,  
 K. B. Bravaya,  H. Burton,  D. Casanova,  Chun-Min Chang,  Yunqing Chen,  
 A. Chien,  K. D. Closser,  M. P. Coons,  S. Coriani,  S. Dasgupta,  
 A. L. Dempwolff,  M. Diedenhofen,  Hainam Do,  R. G. Edgar,  Po-Tung Fang,  
 S. Faraji,  S. Fatehi,  Qingguo Feng,  K. D. Fenk,  J. Fosso-Tande,  
 J. Gayvert,  Qinghui Ge,  A. Ghysels,  G. Gidofalvi,  J. Gomes,  
 J. Gonthier,  A. Gunina,  D. Hait,  M. W. D. Hanson-Heine,  
 P. H. P. Harbach,  A. W. Hauser,  M. F. Herbst,  J. E. Herr,  
 E. G. Hohenstein,  Z. C. Holden,  Kerwin Hui,  B. C. Huynh,  T.-C. Jagau,  
 Hyunjun Ji,  B. Kaduk,  K. Khistyaev,  Jaehoon Kim,  P. Klunzinger,  K. Koh,  
 D. Kosenkov,  L. Koulias,  T. Kowalczyk,  C. M. Krauter,  A. Kunitsa,  
 Ka Un Lao,  A. Laurent,  K. V. Lawler,  Joonho Lee,  D. Lefrancois,  
 S. Lehtola,  D. S. Levine,  Yi-Pei Li,  You-Sheng Lin,  Fenglai Liu,  
 E. Livshits,  A. Luenser,  P. Manohar,  E. Mansoor,  S. F. Manzer,  
 Shan-Ping Mao,  Yuezhi Mao,  N. Mardirossian,  A. V. Marenich,  
 T. Markovich,  L. A. Martinez-Martinez,  S. A. Maurer,  N. J. Mayhall,  
 S. C. McKenzie,  J.-M. Mewes,  P. Morgante,  A. F. Morrison,  
 J. W. Mullinax,  K. Nanda,  T. S. Nguyen-Beck,  R. Olivares-Amaya,  
 J. A. Parkhill,  Zheng Pei,  T. M. Perrine,  F. Plasser,  P. Pokhilko,  
 S. Prager,  A. Prociuk,  E. Ramos,  D. R. Rehn,  F. Rob,  M. Scheurer,  
 M. Schneider,  N. Sergueev,  S. M. Sharada,  S. Sharma,  D. W. Small,  
 T. Stauch,  T. Stein,  Yu-Chuan Su,  A. J. W. Thom,  A. Tkatchenko,  
 T. Tsuchimochi,  N. M. Tubman,  L. Vogt,  M. L. Vidal,  O. Vydrov,  
 M. A. Watson,  J. Wenzel,  M. de Wergifosse,  T. A. Wesolowski,  A. White,  
 J. Witte,  A. Yamada,  Jun Yang,  K. Yao,  S. Yeganeh,  S. R. Yost,  
 Zhi-Qiang You,  A. Zech,  Igor Ying Zhang,  Xing Zhang,  Yan Zhao,  
 Ying Zhu,  B. R. Brooks,  G. K. L. Chan,  C. J. Cramer,  M. S. Gordon,  
 W. J. Hehre,  A. Klamt,  M. W. Schmidt,  C. D. Sherrill,  D. G. Truhlar,  
 A. Aspuru-Guzik,  R. Baer,  A. T. Bell,  N. A. Besley,  Jeng-Da Chai,  
 A. E. DePrince, III,  R. A. DiStasio Jr.,  A. Dreuw,  B. D. Dunietz,  
 T. R. Furlani,  Chao-Ping Hsu,  Yousung Jung,  Jing Kong,  D. S. Lambrecht,  
 WanZhen Liang,  C. Ochsenfeld,  V. A. Rassolov,  L. V. Slipchenko,  
 J. E. Subotnik,  T. Van Voorhis,  J. M. Herbert,  A. I. Krylov,  
 P. M. W. Gill,  M. Head-Gordon

 Contributors to earlier versions of Q-Chem not listed above: 
 R. D. Adamson,  B. Austin,  J. Baker,  G. J. O. Beran,  K. Brandhorst,  
 S. T. Brown,  E. F. C. Byrd,  A. K. Chakraborty,  C.-L. Cheng,  
 Siu Hung Chien,  D. M. Chipman,  D. L. Crittenden,  H. Dachsel,  
 R. J. Doerksen,  A. D. Dutoi,  L. Fusti-Molnar,  W. A. Goddard III,  
 A. Golubeva-Zadorozhnaya,  S. R. Gwaltney,  G. Hawkins,  A. Heyden,  
 S. Hirata,  G. Kedziora,  F. J. Keil,  C. Kelley,  Jihan Kim,  R. A. King,  
 R. Z. Khaliullin,  P. P. Korambath,  W. Kurlancheek,  A. M. Lee,  M. S. Lee,  
 S. V. Levchenko,  Ching Yeh Lin,  D. Liotard,  R. C. Lochan,  I. Lotan,  
 P. E. Maslen,  N. Nair,  D. P. O'Neill,  D. Neuhauser,  E. Neuscamman,  
 C. M. Oana,  R. Olson,  B. Peters,  R. Peverati,  P. A. Pieniazek,  
 Y. M. Rhee,  J. Ritchie,  M. A. Rohrdanz,  E. Rosta,  N. J. Russ,  
 H. F. Schaefer III,  N. E. Schultz,  N. Shenvi,  A. C. Simmonett,  A. Sodt,  
 D. Stuck,  K. S. Thanthiriwatte,  V. Vanovschi,  Tao Wang,  A. Warshel,  
 C. F. Williams,  Q. Wu,  X. Xu,  W. Zhang

 Please cite Q-Chem as follows:
 Y. Shao et al., Mol. Phys. 113, 184-215 (2015)
 DOI: 10.1080/00268976.2014.952696

 Q-Chem 5.2.1 for Intel X86 EM64T Linux

 Parts of Q-Chem use Armadillo 8.300.2 (Tropical Shenanigans).
 http://arma.sourceforge.net/

 Q-Chem begins on Mon Feb  7 08:31:25 2022  

Host: 
0

     Scratch files written to /gpfs/fs0/scratch/a/aspuru/rhickman/descriptor_computation/qchem251887//
 Jul1719 |scratch|qcdevops|jenkins|workspace|build_RNUM -1
Processing $rem in /scinet/niagara/software/commercial/qc52/config/preferences:
	 MEM_TOTAL  4000 
NAlpha2: 80
NElect   80
Mult     1

Checking the input file for inconsistencies... 	...done.

--------------------------------------------------------------
User input:
--------------------------------------------------------------
$molecule
0 1
C         3.54869701730000    1.03170822570000    0.00172528020000
C         2.86358003140000   -0.10856106000000   -0.00248789380000
C         1.43099012200000   -0.20966309300000   -0.00141055390000
C         0.68179715290000   -1.35888775200000   -0.00246748530000
C        -0.71025192620000   -1.15417934090000   -0.00075836060000
C        -1.67583250310000   -2.29354779630000    0.00015081610000
C        -1.04010915960000    0.18636535910000    0.00129157120000
C        -2.29881254870000    0.88208890680000    0.00345201330000
C        -3.52637875280000    0.36568371450000   -0.00458590740000
S         0.39415386310000    1.17970660910000    0.00216251930000
H         4.62401393930000    1.04660734000000    0.00084840200000
H         3.04776731570000    1.98581624510000    0.00570600760000
H         3.38160042270000   -1.05965363750000   -0.00695392890000
H         1.12861818800000   -2.33870989890000   -0.00427086920000
H        -1.13416817560000   -3.23654137290000    0.00660101180000
H        -2.30775829300000   -2.26372840330000   -0.88680834580000
H        -2.31544494740000   -2.25561819630000    0.88121755480000
H        -2.19265379880000    1.96068685990000    0.01202965600000
H        -3.72647837760000   -0.68860943850000   -0.01458151220000
H        -4.38756445750000    1.01164063550000   -0.00191192440000
$end

$rem
BASIS = 6-31G*
GUI = 2
METHOD = B3LYP
PRINT_ORBITALS false
MOLDEN_FORMAT false
--------------------------------------------------------------
 ----------------------------------------------------------------
             Standard Nuclear Orientation (Angstroms)
    I     Atom           X                Y                Z
 ----------------------------------------------------------------
    1      C       3.6955591520    -0.4991996766    -0.0004033774
    2      C       2.8413542823     0.5205763606     0.0024168609
    3      C       1.4104825845     0.3975263902     0.0011842465
    4      C       0.4915893848     1.4161743691     0.0008359454
    5      C      -0.8516493633     0.9973468074    -0.0006581972
    6      C      -1.9827603126     1.9725851629    -0.0029657133
    7      C      -0.9688920525    -0.3781981932    -0.0010968348
    8      C      -2.1040045831    -1.2613107943    -0.0024462234
    9      C      -3.3969753189    -0.9422029097     0.0049396163
   10      S       0.6024701687    -1.1362606278    -0.0007349402
   11      H       4.7600961053    -0.3465908160     0.0005163968
   12      H       3.3491964986    -1.5196375096    -0.0032434580
   13      H       3.2050685653     1.5406954701     0.0057462863
   14      H       0.7805016539     2.4535908875     0.0014663769
   15      H      -1.5944275437     2.9883700772    -0.0105421822
   16      H      -2.6025356762     1.8458526689     0.8840141786
   17      H      -2.6084940135     1.8345423615    -0.8840008159
   18      H      -1.8313012846    -2.3102611368    -0.0097188139
   19      H      -3.7586935587     0.0681226520     0.0136573444
   20      H      -4.1471560848    -1.7142997092     0.0030257919
 ----------------------------------------------------------------
 Molecular Point Group                 C1    NOp =  1
 Largest Abelian Subgroup              C1    NOp =  1
 Nuclear Repulsion Energy =         564.95198803 hartrees
 There are       40 alpha and       40 beta electrons
 Requested basis set is 6-31G(d)
 There are 61 shells and 174 basis functions

 Total QAlloc Memory Limit   4000 MB
 Mega-Array Size       188 MB
 MEM_STATIC part       192 MB
 A cutoff of  1.0D-08 yielded   1370 shell pairs
 There are     12349 function pairs
 Smallest overlap matrix eigenvalue = 6.80E-04

 Scale SEOQF with 1.000000e-01/1.000000e-01/1.000000e+00

 Standard Electronic Orientation quadrupole field applied
 Nucleus-field energy     =     0.0000000200 hartrees
 Guess from superposition of atomic densities
 Warning:  Energy on first SCF cycle will be non-variational
 SAD guess density has 80.000000 electrons

 -----------------------------------------------------------------------
  General SCF calculation program by
  Eric Jon Sundstrom, Paul Horn, Yuezhi Mao, Dmitri Zuev, Alec White,
  David Stuck, Shaama M.S., Shane Yost, Joonho Lee, David Small,
  Daniel Levine, Susi Lehtola, Hugh Burton, Evgeny Epifanovsky,
  Bang C. Huynh
 -----------------------------------------------------------------------
 Exchange:     0.2000 Hartree-Fock + 0.0800 Slater + 0.7200 B88
 Correlation:  0.1900 VWN1RPA + 0.8100 LYP
 Using SG-1 standard quadrature grid
 A restricted SCF calculation will be
 performed using DIIS
 SCF converges when DIIS error is below 1.0e-05
 ---------------------------------------
  Cycle       Energy         DIIS error
 ---------------------------------------
    1    -749.3702686600      6.05e-02  
    2    -746.9312981551      6.70e-03  
    3    -746.8551816727      7.86e-03  
    4    -747.1073832761      1.70e-03  
    5    -747.1196094395      5.04e-04  
    6    -747.1205064641      1.88e-04  
    7    -747.1206482541      5.70e-05  
    8    -747.1206604469      1.99e-05  
    9    -747.1206619398      3.24e-06  Convergence criterion met
 ---------------------------------------
 SCF time:   CPU 22.99s  wall 23.00s 
 SCF   energy in the final basis set =     -747.1206619398
 Total energy in the final basis set =     -747.1206619398
 
 --------------------------------------------------------------
 
                    Orbital Energies (a.u.)
 --------------------------------------------------------------
 
 Alpha MOs
 -- Occupied --
-88.8993 -10.2154 -10.2142 -10.1976 -10.1969 -10.1956 -10.1871 -10.1858
-10.1805 -10.1801  -7.9614  -5.9253  -5.9218  -5.9183  -0.8890  -0.8068
 -0.7773  -0.7584  -0.7134  -0.6726  -0.6217  -0.5882  -0.5348  -0.5182
 -0.4921  -0.4579  -0.4436  -0.4304  -0.4216  -0.4155  -0.3973  -0.3799
 -0.3710  -0.3589  -0.3457  -0.3320  -0.3188  -0.2695  -0.2458  -0.1963
 -- Virtual --
 -0.0498   0.0149   0.0261   0.0759   0.0917   0.1066   0.1084   0.1280
  0.1338   0.1388   0.1607   0.1794   0.1876   0.1910   0.2056   0.2174
  0.2456   0.2531   0.2995   0.3103   0.3259   0.3426   0.3578   0.3659
  0.3989   0.4471   0.4586   0.4784   0.4903   0.5063   0.5197   0.5356
  0.5380   0.5675   0.5888   0.5945   0.6036   0.6175   0.6224   0.6336
  0.6765   0.6837   0.6883   0.7077   0.7430   0.7468   0.7552   0.7872
  0.8211   0.8315   0.8551   0.8602   0.8617   0.8773   0.8795   0.8817
  0.8972   0.9053   0.9302   0.9500   0.9627   0.9818   0.9977   1.0050
  1.0341   1.0446   1.0553   1.1008   1.1121   1.1393   1.1840   1.2641
  1.2823   1.2968   1.3022   1.3456   1.3460   1.3684   1.4228   1.4524
  1.4544   1.4885   1.5235   1.5771   1.6280   1.6493   1.7088   1.7509
  1.7797   1.8290   1.8692   1.8993   1.9066   1.9136   1.9883   2.0082
  2.0253   2.0509   2.0679   2.0906   2.1448   2.1754   2.1876   2.1903
  2.2489   2.2805   2.3099   2.3411   2.3598   2.3699   2.4279   2.4550
  2.4906   2.5079   2.5705   2.6133   2.6722   2.7412   2.7798   2.8536
  2.9315   3.0108   3.1107   3.2128   3.9721   4.0851   4.1158   4.1323
  4.1595   4.2199   4.2589   4.3525   4.5249   4.6337
 --------------------------------------------------------------
 
          Ground-State Mulliken Net Atomic Charges

     Atom                 Charge (a.u.)
  ----------------------------------------
      1 C                    -0.374756
      2 C                    -0.055238
      3 C                    -0.135486
      4 C                    -0.180501
      5 C                     0.183718
      6 C                    -0.535520
      7 C                    -0.186002
      8 C                    -0.087334
      9 C                    -0.356271
     10 S                     0.233525
     11 H                     0.146208
     12 H                     0.155430
     13 H                     0.136919
     14 H                     0.132045
     15 H                     0.156011
     16 H                     0.170130
     17 H                     0.170203
     18 H                     0.135540
     19 H                     0.146879
     20 H                     0.144500
  ----------------------------------------
  Sum of atomic charges =     0.000000

 -----------------------------------------------------------------
                    Cartesian Multipole Moments
 -----------------------------------------------------------------
    Charge (ESU x 10^10)
                -0.0000
    Dipole Moment (Debye)
         X      -0.3440      Y       1.0187      Z      -0.0001
       Tot       1.0752
    Quadrupole Moments (Debye-Ang)
        XX     -60.3529     XY       0.6851     YY     -61.0826
        XZ      -0.0027     YZ       0.0270     ZZ     -71.0312
    Octopole Moments (Debye-Ang^2)
       XXX       6.6444    XXY       0.1827    XYY      -0.8508
       YYY       2.2623    XXZ       0.0794    XYZ      -0.0144
       YYZ      -0.0436    XZZ      -2.2507    YZZ       1.3494
       ZZZ      -0.0064
    Hexadecapole Moments (Debye-Ang^3)
      XXXX   -1774.4033   XXXY       9.0446   XXYY    -396.8517
      XYYY      15.6096   YYYY    -598.2267   XXXZ      -0.1974
      XXYZ       0.2078   XYYZ       0.0782   YYYZ       0.0876
      XXZZ    -363.9894   XYZZ      -6.3137   YYZZ    -125.9372
      XZZZ       0.0032   YZZZ       0.0357   ZZZZ     -83.7459
 -----------------------------------------------------------------
Archival summary:
1\1\nia0005.scinet.local\SP\ProcedureUnspecified\6-31G*\1910\rhickman\MonFeb708:31:482022MonFeb708:31:482022\0\\#,ProcedureUnspecified,6-31G*,\\0,1\S\C,1,1.73361\C,2,1.37186,1,110.167\H,3,1.0769,2,122.385,1,-179.976,0\C,3,1.40702,2,114.735,1,0.0126263,0\C,5,1.38053,3,112.189,2,0.0171697,0\C,2,1.43615,1,122.696,3,-179.979,0\H,7,1.08302,2,114.538,1,-179.873,0\C,7,1.33027,2,125.036,1,0.139024,0\H,9,1.07542,7,121.792,2,179.988,0\H,9,1.07762,7,121.301,2,-0.0423564,0\C,6,1.43818,5,132.755,3,179.998,0\H,12,1.08384,6,113.31,5,179.58,0\C,12,1.33179,6,128.252,5,-0.471926,0\H,14,1.07316,12,123.563,6,-0.02877,0\H,14,1.07653,12,120.31,6,-179.985,0\C,5,1.49349,3,121.915,2,-179.922,0\H,17,1.08751,5,109.846,3,0.40897,0\H,17,1.08941,5,110.703,3,120.252,0\H,17,1.08946,5,110.71,3,-119.411,0\\\@

 Total job time:  23.23s(wall), 23.14s(cpu) 
 Mon Feb  7 08:31:48 2022

        *************************************************************
        *                                                           *
        *  Thank you very much for using Q-Chem.  Have a nice day.  *
        *                                                           *
        *************************************************************


