26
 energy: -46.997055933888 gnorm: 0.000050096299 xtb: 6.4.1 (23d549d)
C        -2.06253099230000   -3.15685965200000   -0.23266460220000
C        -2.18078323150000   -1.85248241660000   -0.45030482850000
C        -1.12052500270000   -0.87472811420000   -0.23068358750000
C         0.22187043160000   -1.24866314520000   -0.26911155860000
C         1.25195730060000   -0.34440722520000   -0.06049489900000
C         2.63556345900000   -0.91652985990000   -0.04050261360000
O         3.02218673270000   -1.72478494660000   -0.83528124710000
O         3.41181615610000   -0.53377939680000    0.99227781320000
C         0.96397451790000    1.01211045080000    0.15802352710000
C         1.98458151710000    2.05770228750000    0.23181466620000
C         3.11378886020000    2.06059530460000   -0.46574803540000
C        -0.37659469910000    1.38307749810000    0.23627833690000
C        -1.40966086120000    0.47365461700000    0.04733599120000
C        -2.81435856040000    0.98861713960000    0.11638687350000
O        -3.67473357800000    0.72900647560000   -0.67508453600000
O        -3.06190252720000    1.81769808770000    1.14944405150000
H        -2.88446181140000   -3.82661846640000   -0.41617838430000
H        -1.16074681220000   -3.60705680320000    0.14811864370000
H        -3.11940771520000   -1.44816485950000   -0.79896068740000
H         0.48688132510000   -2.27254510590000   -0.48203330470000
H         3.00015217450000    0.15544350390000    1.53019473710000
H         1.72926625640000    2.91030305040000    0.84970232650000
H         3.37738672640000    1.25808653180000   -1.13476994880000
H         3.81030270620000    2.87851520410000   -0.40344139600000
H        -0.60796617280000    2.42971205780000    0.39108164440000
H        -2.29756710410000    1.92859911630000    1.73040150550000
