20
 energy: -39.126322522252 gnorm: 0.000034884996 xtb: 6.4.1 (23d549d)
C        -3.27829913070000    2.62888218960000    0.03823439430000
C        -2.00364106730000    2.26386908250000   -0.02485531020000
C        -1.48873483720000    0.89884831320000   -0.01540791980000
C        -2.32371660260000   -0.21905148700000   -0.01047520780000
C        -1.75741393250000   -1.47708654710000   -0.00111482930000
F        -2.56982539610000   -2.55475154800000    0.00239951870000
C        -0.39184388810000   -1.67828072950000    0.00383772890000
C         0.45494336470000   -0.56814185910000   -0.00193189310000
C         1.88924642430000   -0.81324035030000    0.00292946690000
C         2.87705201440000    0.06974949070000    0.00334692530000
F         2.79143603250000    1.39350366610000   -0.00101738520000
F         4.16074080050000   -0.27820412930000    0.00858634850000
C        -0.10757723380000    0.70649367480000   -0.01295795730000
H        -3.56117613820000    3.66719469300000    0.02675350620000
H        -4.08788925510000    1.92294452870000    0.10637728710000
H        -1.24018405290000    3.02909939340000   -0.08465775150000
H        -3.39670165470000   -0.12515156560000   -0.01742788440000
H         0.00071990670000   -2.68262862690000    0.01096846420000
H         2.20036198400000   -1.84781501430000    0.00748444140000
H         0.52993614410000    1.57544905660000   -0.01819301750000
