23
 energy: -31.182332417180 gnorm: 0.000041584972 xtb: 6.4.1 (23d549d)
C        -1.93886924930000   -2.16225584190000   -0.54335175630000
C        -1.86988853540000   -0.99980031080000    0.09204966760000
C        -0.74434011350000   -0.08767459390000    0.07702026170000
C        -0.86649252580000    1.32176901070000    0.12610622100000
C        -2.11027136140000    2.12518951680000    0.26000669700000
N         0.31772166100000    1.89604134530000    0.01277464740000
N         1.20761495150000    0.91541347610000   -0.10872206030000
C         2.60214747090000    1.23330415360000   -0.20718120720000
C         0.62842909260000   -0.31375731620000   -0.06826119860000
C         1.43892107010000   -1.51093179560000   -0.11027446480000
C         1.13835837920000   -2.65886730330000    0.48465382370000
H        -2.82741168990000   -2.76952385000000   -0.50991240640000
H        -1.11573635620000   -2.54509544210000   -1.12243023530000
H        -2.73433133700000   -0.63398522390000    0.63379784510000
H        -2.63259153830000    1.86998339790000    1.18161895630000
H        -2.78095362010000    1.93197537990000   -0.57649180340000
H        -1.85472200940000    3.18077694790000    0.27606601490000
H         2.68970556420000    2.31597568570000   -0.14389354900000
H         3.01400282130000    0.89547781660000   -1.16112126400000
H         3.16496736700000    0.77467022500000    0.60840085590000
H         2.37539140960000   -1.41488314470000   -0.64714628210000
H         0.23069889180000   -2.78332226290000    1.04905094620000
H         1.79440445180000   -3.51014081750000    0.42542698010000
