
Running Job 1 of 1 fragments/C071/conf-1/spe_input.inp
qchem fragments/C071/conf-1/spe_input.inp_297585.0 /gpfs/fs0/scratch/a/aspuru/rhickman/descriptor_computation/qchem297585/ 0
/scinet/niagara/software/commercial/qc52/exe/qcprog.exe_s fragments/C071/conf-1/spe_input.inp_297585.0 /gpfs/fs0/scratch/a/aspuru/rhickman/descriptor_computation/qchem297585/
                  Welcome to Q-Chem
     A Quantum Leap Into The Future Of Chemistry


 Q-Chem 5.2, Q-Chem, Inc., Pleasanton, CA (2019)

 License issued to: SRG Alan Aspuru-Guzik, University of Toronto

 Yihan Shao,  Zhengting Gan,  E. Epifanovsky,  A. T. B. Gilbert,  M. Wormit,  
 J. Kussmann,  A. W. Lange,  A. Behn,  Jia Deng,  Xintian Feng,  D. Ghosh,  
 M. Goldey,  P. R. Horn,  L. D. Jacobson,  I. Kaliman,  T. Kus,  A. Landau,  
 Jie Liu,  E. I. Proynov,  R. M. Richard,  R. P. Steele,  E. J. Sundstrom,  
 H. L. Woodcock III,  P. M. Zimmerman,  D. Zuev,  B. Albrecht,  E. Alguire,  
 S. A. Baeppler,  D. Barton,  Z. Benda,  Y. A. Bernard,  E. J. Berquist,  
 K. B. Bravaya,  H. Burton,  D. Casanova,  Chun-Min Chang,  Yunqing Chen,  
 A. Chien,  K. D. Closser,  M. P. Coons,  S. Coriani,  S. Dasgupta,  
 A. L. Dempwolff,  M. Diedenhofen,  Hainam Do,  R. G. Edgar,  Po-Tung Fang,  
 S. Faraji,  S. Fatehi,  Qingguo Feng,  K. D. Fenk,  J. Fosso-Tande,  
 J. Gayvert,  Qinghui Ge,  A. Ghysels,  G. Gidofalvi,  J. Gomes,  
 J. Gonthier,  A. Gunina,  D. Hait,  M. W. D. Hanson-Heine,  
 P. H. P. Harbach,  A. W. Hauser,  M. F. Herbst,  J. E. Herr,  
 E. G. Hohenstein,  Z. C. Holden,  Kerwin Hui,  B. C. Huynh,  T.-C. Jagau,  
 Hyunjun Ji,  B. Kaduk,  K. Khistyaev,  Jaehoon Kim,  P. Klunzinger,  K. Koh,  
 D. Kosenkov,  L. Koulias,  T. Kowalczyk,  C. M. Krauter,  A. Kunitsa,  
 Ka Un Lao,  A. Laurent,  K. V. Lawler,  Joonho Lee,  D. Lefrancois,  
 S. Lehtola,  D. S. Levine,  Yi-Pei Li,  You-Sheng Lin,  Fenglai Liu,  
 E. Livshits,  A. Luenser,  P. Manohar,  E. Mansoor,  S. F. Manzer,  
 Shan-Ping Mao,  Yuezhi Mao,  N. Mardirossian,  A. V. Marenich,  
 T. Markovich,  L. A. Martinez-Martinez,  S. A. Maurer,  N. J. Mayhall,  
 S. C. McKenzie,  J.-M. Mewes,  P. Morgante,  A. F. Morrison,  
 J. W. Mullinax,  K. Nanda,  T. S. Nguyen-Beck,  R. Olivares-Amaya,  
 J. A. Parkhill,  Zheng Pei,  T. M. Perrine,  F. Plasser,  P. Pokhilko,  
 S. Prager,  A. Prociuk,  E. Ramos,  D. R. Rehn,  F. Rob,  M. Scheurer,  
 M. Schneider,  N. Sergueev,  S. M. Sharada,  S. Sharma,  D. W. Small,  
 T. Stauch,  T. Stein,  Yu-Chuan Su,  A. J. W. Thom,  A. Tkatchenko,  
 T. Tsuchimochi,  N. M. Tubman,  L. Vogt,  M. L. Vidal,  O. Vydrov,  
 M. A. Watson,  J. Wenzel,  M. de Wergifosse,  T. A. Wesolowski,  A. White,  
 J. Witte,  A. Yamada,  Jun Yang,  K. Yao,  S. Yeganeh,  S. R. Yost,  
 Zhi-Qiang You,  A. Zech,  Igor Ying Zhang,  Xing Zhang,  Yan Zhao,  
 Ying Zhu,  B. R. Brooks,  G. K. L. Chan,  C. J. Cramer,  M. S. Gordon,  
 W. J. Hehre,  A. Klamt,  M. W. Schmidt,  C. D. Sherrill,  D. G. Truhlar,  
 A. Aspuru-Guzik,  R. Baer,  A. T. Bell,  N. A. Besley,  Jeng-Da Chai,  
 A. E. DePrince, III,  R. A. DiStasio Jr.,  A. Dreuw,  B. D. Dunietz,  
 T. R. Furlani,  Chao-Ping Hsu,  Yousung Jung,  Jing Kong,  D. S. Lambrecht,  
 WanZhen Liang,  C. Ochsenfeld,  V. A. Rassolov,  L. V. Slipchenko,  
 J. E. Subotnik,  T. Van Voorhis,  J. M. Herbert,  A. I. Krylov,  
 P. M. W. Gill,  M. Head-Gordon

 Contributors to earlier versions of Q-Chem not listed above: 
 R. D. Adamson,  B. Austin,  J. Baker,  G. J. O. Beran,  K. Brandhorst,  
 S. T. Brown,  E. F. C. Byrd,  A. K. Chakraborty,  C.-L. Cheng,  
 Siu Hung Chien,  D. M. Chipman,  D. L. Crittenden,  H. Dachsel,  
 R. J. Doerksen,  A. D. Dutoi,  L. Fusti-Molnar,  W. A. Goddard III,  
 A. Golubeva-Zadorozhnaya,  S. R. Gwaltney,  G. Hawkins,  A. Heyden,  
 S. Hirata,  G. Kedziora,  F. J. Keil,  C. Kelley,  Jihan Kim,  R. A. King,  
 R. Z. Khaliullin,  P. P. Korambath,  W. Kurlancheek,  A. M. Lee,  M. S. Lee,  
 S. V. Levchenko,  Ching Yeh Lin,  D. Liotard,  R. C. Lochan,  I. Lotan,  
 P. E. Maslen,  N. Nair,  D. P. O'Neill,  D. Neuhauser,  E. Neuscamman,  
 C. M. Oana,  R. Olson,  B. Peters,  R. Peverati,  P. A. Pieniazek,  
 Y. M. Rhee,  J. Ritchie,  M. A. Rohrdanz,  E. Rosta,  N. J. Russ,  
 H. F. Schaefer III,  N. E. Schultz,  N. Shenvi,  A. C. Simmonett,  A. Sodt,  
 D. Stuck,  K. S. Thanthiriwatte,  V. Vanovschi,  Tao Wang,  A. Warshel,  
 C. F. Williams,  Q. Wu,  X. Xu,  W. Zhang

 Please cite Q-Chem as follows:
 Y. Shao et al., Mol. Phys. 113, 184-215 (2015)
 DOI: 10.1080/00268976.2014.952696

 Q-Chem 5.2.1 for Intel X86 EM64T Linux

 Parts of Q-Chem use Armadillo 8.300.2 (Tropical Shenanigans).
 http://arma.sourceforge.net/

 Q-Chem begins on Tue Feb  8 13:19:30 2022  

Host: 
0

     Scratch files written to /gpfs/fs0/scratch/a/aspuru/rhickman/descriptor_computation/qchem297585//
 Jul1719 |scratch|qcdevops|jenkins|workspace|build_RNUM -1
Processing $rem in /scinet/niagara/software/commercial/qc52/config/preferences:
	 MEM_TOTAL  4000 
NAlpha2: 78
NElect   78
Mult     1

Checking the input file for inconsistencies... 	...done.

--------------------------------------------------------------
User input:
--------------------------------------------------------------
$molecule
0 1
C        -3.73504507990000    0.81266058920000   -0.01383955360000
C        -3.01414021540000   -0.30181658510000   -0.03270211460000
C        -1.55932109670000   -0.40600566330000   -0.01543324310000
C        -0.97490729660000   -1.67435681330000   -0.01591438530000
C         0.39771254270000   -1.81352166180000    0.00413176060000
C         1.20185399320000   -0.68936839970000    0.02015071210000
F         2.53684095370000   -0.89379340370000    0.04633631500000
C         0.67166380340000    0.60374150680000    0.01734479290000
C         1.45261522290000    1.83589113420000    0.03210199830000
C         2.77094272500000    1.96693445240000   -0.05790656020000
C        -0.71982857830000    0.70372452070000    0.00287322560000
H        -4.81085477820000    0.78100347620000   -0.02887219610000
H        -3.29566122440000    1.79476183740000    0.01735655420000
H        -3.52779335220000   -1.25513149050000   -0.06263291900000
H        -1.60087314150000   -2.55427266020000   -0.02937647150000
H         0.86260213810000   -2.78729599340000    0.00822744590000
H         0.84527256270000    2.72941273010000    0.11869349160000
H         3.44433285130000    1.13521988340000   -0.15482004590000
H         3.22656929050000    2.94286099390000   -0.03880701890000
H        -1.15200631660000    1.69268611420000    0.00221418390000
$end

$rem
BASIS = 6-31G*
GUI = 2
METHOD = B3LYP
PRINT_ORBITALS false
MOLDEN_FORMAT false
--------------------------------------------------------------
 ----------------------------------------------------------------
             Standard Nuclear Orientation (Angstroms)
    I     Atom           X                Y                Z
 ----------------------------------------------------------------
    1      C       3.5499376863    -1.2461058732     0.0068204391
    2      C       2.9786571743    -0.0481610963    -0.0193688704
    3      C       1.5493173467     0.2425826460    -0.0089775327
    4      C       1.1331356883     1.5756193562    -0.0167439547
    5      C      -0.2101963772     1.8904735362    -0.0033374938
    6      C      -1.1524833002     0.8793151599     0.0132374471
    7      F      -2.4501152531     1.2540651627     0.0327105797
    8      C      -0.7932490385    -0.4713049749     0.0175661521
    9      C      -1.7264437391    -1.5925512178     0.0333810985
   10      C      -3.0503028982    -1.5531102394    -0.0620266098
   11      C       0.5738226598    -0.7497107257     0.0096739263
   12      H       4.6209153554    -1.3533178997    -0.0035272019
   13      H       2.9876031962    -2.1633052169     0.0396764357
   14      H       3.6109292276     0.8309328931    -0.0505219630
   15      H       1.8672655798     2.3675322951    -0.0306566837
   16      H      -0.5458085752     2.9160160986    -0.0049074777
   17      H      -1.2395881731    -2.5564712179     0.1259766012
   18      H      -3.6105750063    -0.6420202156    -0.1650108008
   19      H      -3.6279016175    -2.4621458148    -0.0413622393
   20      H       0.8750260782    -1.7860868125     0.0145905009
 ----------------------------------------------------------------
 Molecular Point Group                 C1    NOp =  1
 Largest Abelian Subgroup              C1    NOp =  1
 Nuclear Repulsion Energy =         551.12995328 hartrees
 There are       39 alpha and       39 beta electrons
 Requested basis set is 6-31G(d)
 There are 62 shells and 183 basis functions

 Total QAlloc Memory Limit   4000 MB
 Mega-Array Size       188 MB
 MEM_STATIC part       192 MB
 A cutoff of  1.0D-08 yielded   1421 shell pairs
 There are     13535 function pairs
 Smallest overlap matrix eigenvalue = 3.54E-04

 Scale SEOQF with 1.000000e-01/1.000000e-01/1.000000e+00

 Standard Electronic Orientation quadrupole field applied
 Nucleus-field energy     =     0.0000000228 hartrees
 Guess from superposition of atomic densities
 Warning:  Energy on first SCF cycle will be non-variational
 SAD guess density has 78.000000 electrons

 -----------------------------------------------------------------------
  General SCF calculation program by
  Eric Jon Sundstrom, Paul Horn, Yuezhi Mao, Dmitri Zuev, Alec White,
  David Stuck, Shaama M.S., Shane Yost, Joonho Lee, David Small,
  Daniel Levine, Susi Lehtola, Hugh Burton, Evgeny Epifanovsky,
  Bang C. Huynh
 -----------------------------------------------------------------------
 Exchange:     0.2000 Hartree-Fock + 0.0800 Slater + 0.7200 B88
 Correlation:  0.1900 VWN1RPA + 0.8100 LYP
 Using SG-1 standard quadrature grid
 A restricted SCF calculation will be
 performed using DIIS
 SCF converges when DIIS error is below 1.0e-05
 ---------------------------------------
  Cycle       Energy         DIIS error
 ---------------------------------------
    1    -488.7256269238      5.91e-02  
    2    -486.1137767516      6.04e-03  
    3    -486.0885027296      6.52e-03  
    4    -486.2670123123      1.59e-03  
    5    -486.2785925316      3.93e-04  
    6    -486.2791643679      1.86e-04  
    7    -486.2793052930      4.10e-05  
    8    -486.2793111257      2.05e-05  
    9    -486.2793129068      2.10e-06  Convergence criterion met
 ---------------------------------------
 SCF time:   CPU 21.67s  wall 22.00s 
 SCF   energy in the final basis set =     -486.2793129068
 Total energy in the final basis set =     -486.2793129068
 
 --------------------------------------------------------------
 
                    Orbital Energies (a.u.)
 --------------------------------------------------------------
 
 Alpha MOs
 -- Occupied --
-24.7098 -10.2730 -10.2060 -10.1988 -10.1971 -10.1958 -10.1951 -10.1940
-10.1932 -10.1818 -10.1790  -1.2209  -0.8757  -0.8077  -0.7874  -0.7391
 -0.7268  -0.6366  -0.6314  -0.5935  -0.5547  -0.5320  -0.5097  -0.4778
 -0.4641  -0.4622  -0.4414  -0.4389  -0.4305  -0.3964  -0.3905  -0.3785
 -0.3690  -0.3544  -0.3352  -0.3180  -0.2886  -0.2374  -0.2192
 -- Virtual --
 -0.0357  -0.0278   0.0375   0.0861   0.0899   0.1031   0.1237   0.1285
  0.1576   0.1681   0.1791   0.1873   0.2053   0.2127   0.2363   0.2662
  0.3012   0.3204   0.3257   0.3640   0.3715   0.3880   0.4295   0.4639
  0.4989   0.5021   0.5273   0.5343   0.5480   0.5520   0.5572   0.5725
  0.5950   0.5976   0.6020   0.6053   0.6188   0.6304   0.6329   0.6565
  0.6702   0.6864   0.7003   0.7029   0.7643   0.7978   0.8039   0.8209
  0.8442   0.8586   0.8649   0.8735   0.8867   0.9093   0.9161   0.9537
  0.9750   0.9776   0.9834   1.0032   1.0502   1.0647   1.1094   1.1151
  1.1362   1.2003   1.2136   1.2222   1.2313   1.2344   1.2917   1.3190
  1.3297   1.3495   1.4229   1.4310   1.4478   1.4556   1.4638   1.4968
  1.4994   1.5119   1.5516   1.5741   1.6701   1.6758   1.7233   1.7695
  1.7940   1.8087   1.8232   1.8308   1.8870   1.9024   1.9275   1.9437
  1.9596   1.9838   2.0244   2.0289   2.0589   2.0804   2.1250   2.1291
  2.1578   2.1803   2.1990   2.2389   2.2466   2.2636   2.3071   2.3300
  2.3425   2.3948   2.4090   2.4239   2.5099   2.5517   2.5995   2.6070
  2.6475   2.6676   2.6869   2.7039   2.7412   2.8361   2.9040   2.9246
  2.9639   3.0890   3.1394   3.2939   3.4613   4.0728   4.0885   4.1080
  4.1485   4.1495   4.2399   4.2559   4.3805   4.5064   4.7420   5.4699
 --------------------------------------------------------------
 
          Ground-State Mulliken Net Atomic Charges

     Atom                 Charge (a.u.)
  ----------------------------------------
      1 C                    -0.352666
      2 C                    -0.116111
      3 C                     0.192089
      4 C                    -0.197788
      5 C                    -0.194422
      6 C                     0.313157
      7 F                    -0.290090
      8 C                     0.128258
      9 C                    -0.107949
     10 C                    -0.357971
     11 C                    -0.281183
     12 H                     0.145372
     13 H                     0.142767
     14 H                     0.127531
     15 H                     0.136196
     16 H                     0.145609
     17 H                     0.129714
     18 H                     0.162268
     19 H                     0.140711
     20 H                     0.134508
  ----------------------------------------
  Sum of atomic charges =     0.000000

 -----------------------------------------------------------------
                    Cartesian Multipole Moments
 -----------------------------------------------------------------
    Charge (ESU x 10^10)
                 0.0000
    Dipole Moment (Debye)
         X       1.0428      Y      -0.1414      Z      -0.0245
       Tot       1.0527
    Quadrupole Moments (Debye-Ang)
        XX     -60.5974     XY       2.1127     YY     -56.2548
        XZ       0.1741     YZ      -0.3012     ZZ     -67.4112
    Octopole Moments (Debye-Ang^2)
       XXX      -7.1022    XXY      -1.8579    XYY      -2.3160
       YYY      10.7175    XXZ      -1.3628    XYZ      -0.0893
       YYZ       0.6365    XZZ      -9.4723    YZZ       5.3061
       ZZZ       0.3833
    Hexadecapole Moments (Debye-Ang^3)
      XXXX   -1670.8630   XXXY      -1.8141   XXYY    -388.4099
      XYYY     -15.1827   YYYY    -641.9611   XXXZ       2.4762
      XXYZ      -0.6435   XYYZ      -0.7034   YYYZ      -1.7884
      XXZZ    -336.8138   XYZZ     -11.2871   YYZZ    -138.7488
      XZZZ      -0.7914   YZZZ       0.1733   ZZZZ     -67.6733
 -----------------------------------------------------------------
Archival summary:
1\1\nia2015.scinet.local\SP\ProcedureUnspecified\6-31G*\1109\rhickman\TueFeb813:19:522022TueFeb813:19:522022\0\\#,ProcedureUnspecified,6-31G*,\\0,1\F\C,1,1.3508\C,2,1.38225,1,116.878\H,3,1.07906,2,118.897,1,-0.293802,0\C,3,1.3798,2,119.794,1,179.67,0\H,5,1.07994,3,119.645,2,179.94,0\C,5,1.39652,3,120.524,2,-0.225205,0\C,7,1.39161,5,118.152,3,0.133697,0\H,8,1.07927,7,119.284,5,179.918,0\C,8,1.39515,7,123.001,5,0.161801,0\C,7,1.45865,5,118.833,3,-179.807,0\H,11,1.0833,7,114.229,5,-1.03496,0\C,11,1.32745,7,126.974,5,178.866,0\H,13,1.07636,11,123.008,7,0.0106511,0\H,13,1.07638,11,121.191,7,-179.966,0\C,10,1.45887,8,118.261,7,179.826,0\H,16,1.08386,10,113.398,8,5.1057,0\C,16,1.32788,10,127.889,8,-174.257,0\H,18,1.07452,16,123.498,10,-0.130569,0\H,18,1.07722,16,120.539,10,179.713,0\\\@

 Total job time:  22.32s(wall), 21.81s(cpu) 
 Tue Feb  8 13:19:52 2022

        *************************************************************
        *                                                           *
        *  Thank you very much for using Q-Chem.  Have a nice day.  *
        *                                                           *
        *************************************************************


