
Running Job 1 of 1 tidas/B036/conf-4/spe_input.inp
qchem tidas/B036/conf-4/spe_input.inp_239669.0 /home/a/aspuru/seifridm/acdc_laser/descriptor_computation/qchem239669/ 0
/gpfs/fs1/scinet/niagara/software/commercial/qc54/exe/qcprog.exe_s tidas/B036/conf-4/spe_input.inp_239669.0 /home/a/aspuru/seifridm/acdc_laser/descriptor_computation/qchem239669/
                  Welcome to Q-Chem
     A Quantum Leap Into The Future Of Chemistry


 Q-Chem 5.4, Q-Chem, Inc., Pleasanton, CA (2021)

 License issued to: SRG Alan Aspuru-Guzik, University of Toronto

 E. Epifanovsky,  A. T. B. Gilbert,  Xintian Feng,  Joonho Lee,  Yuezhi Mao,  
 N. Mardirossian,  P. Pokhilko,  A. White,  M. Wormit,  M. P. Coons,  
 A. L. Dempwolff,  Zhengting Gan,  D. Hait,  P. R. Horn,  L. D. Jacobson,  
 I. Kaliman,  J. Kussmann,  A. W. Lange,  Ka Un Lao,  D. S. Levine,  Jie Liu,  
 S. C. McKenzie,  A. F. Morrison,  K. Nanda,  F. Plasser,  D. R. Rehn,  
 M. L. Vidal,  Zhi-Qiang You,  Ying Zhu,  B. Alam,  B. Albrecht,  
 A. Aldossary,  E. Alguire,  J. H. Andersen,  D. Barton,  K. Begam,  A. Behn,  
 Y. A. Bernard,  E. J. Berquist,  H. Burton,  A. Carreras,  K. Carter-Fenk,  
 Romit Chakraborty,  A. D. Chien,  K. D. Closser,  V. Cofer-Shabica,  
 S. Dasgupta,  Jia Deng,  M. de Wergifosse,  M. Diedenhofen,  Hainam Do,  
 S. Ehlert,  Po-Tung Fang,  S. Fatehi,  Qingguo Feng,  T. Friedhoff,  
 J. Gayvert,  Qinghui Ge,  G. Gidofalvi,  M. Goldey,  J. Gomes,  
 C. Gonzalez-Espinoza,  S. Gulania,  A. Gunina,  M. W. D. Hanson-Heine,  
 P. H. P. Harbach,  A. W. Hauser,  M. F. Herbst,  M. Hernandez Vera,  
 M. Hodecker,  Z. C. Holden,  S. Houck,  Xunkun Huang,  Kerwin Hui,  
 B. C. Huynh,  M. Ivanov,  Hyunjun Ji,  Hanjie Jiang,  B. Kaduk,  S. Kaehler,  
 K. Khistyaev,  Jaehoon Kim,  P. Klunzinger,  Z. Koczor-Benda,  
 Joong Hoon Koh,  D. Kosenkov,  L. Koulias,  T. Kowalczyk,  C. M. Krauter,  
 K. Kue,  A. Kunitsa,  T. Kus,  A. Landau,  K. V. Lawler,  D. Lefrancois,  
 S. Lehtola,  Rain Li,  Yi-Pei Li,  Jiashu Liang,  M. Liebenthal,  
 Hung-Hsuan Lin,  You-Sheng Lin,  Fenglai Liu,  Kuan-Yu Liu,  
 M. Loipersberger,  A. Luenser,  A. Manjanath,  P. Manohar,  E. Mansoor,  
 S. F. Manzer,  Shan-Ping Mao,  A. V. Marenich,  T. Markovich,  S. Mason,  
 S. A. Maurer,  P. F. McLaughlin,  M. F. S. J. Menger,  J.-M. Mewes,  
 S. A. Mewes,  P. Morgante,  J. W. Mullinax,  K. J. Oosterbaan,  G. Paran,  
 Alexander C. Paul,  Suranjan K. Paul,  F. Pavosevic,  Zheng Pei,  S. Prager,  
 E. I. Proynov,  E. Ramos,  B. Rana,  A. E. Rask,  A. Rettig,  R. M. Richard,  
 F. Rob,  E. Rossomme,  T. Scheele,  M. Scheurer,  M. Schneider,  
 N. Sergueev,  S. M. Sharada,  W. Skomorowski,  D. W. Small,  C. J. Stein,  
 Yu-Chuan Su,  E. J. Sundstrom,  Zhen Tao,  J. Thirman,  T. Tsuchimochi,  
 N. M. Tubman,  S. P. Veccham,  O. Vydrov,  J. Wenzel,  J. Witte,  A. Yamada,  
 Kun Yao,  S. Yeganeh,  S. R. Yost,  A. Zech,  Igor Ying Zhang,  Xing Zhang,  
 Yu Zhang,  D. Zuev,  A. Aspuru-Guzik,  A. T. Bell,  N. A. Besley,  
 K. B. Bravaya,  B. R. Brooks,  D. Casanova,  Jeng-Da Chai,  S. Coriani,  
 C. J. Cramer,  A. E. DePrince, III,  R. A. DiStasio Jr.,  A. Dreuw,  
 B. D. Dunietz,  T. R. Furlani,  W. A. Goddard III,  S. Grimme,  
 S. Hammes-Schiffer,  T. Head-Gordon,  W. J. Hehre,  Chao-Ping Hsu,  
 T.-C. Jagau,  Yousung Jung,  A. Klamt,  Jing Kong,  D. S. Lambrecht,  
 WanZhen Liang,  N. J. Mayhall,  C. W. McCurdy,  J. B. Neaton,  T. Neudecker,  
 C. Ochsenfeld,  J. A. Parkhill,  R. Peverati,  V. A. Rassolov,  Yihan Shao,  
 L. V. Slipchenko,  R. P. Steele,  J. E. Subotnik,  A. J. W. Thom,  
 A. Tkatchenko,  D. G. Truhlar,  T. Van Voorhis,  T. A. Wesolowski,  
 K. B. Whaley,  H. L. Woodcock III,  P. M. Zimmerman,  S. Faraji,  
 P. M. W. Gill,  M. Head-Gordon,  J. M. Herbert,  A. I. Krylov

 Additional authors since Version 5.4.0: 
 Chandrima Chakravarty,  L. Cunha,  R. Kang,  Yongbin Kim,  S. Kotaru,  
 Shaozhi Li,  Xiangyuan Li,  F. Matz,  A. Molle,  V. Parravicini,  
 Haisheng Ren,  Hengyuan Shen,  Yingli Su,  Hung-Yi Tsai,  C. Utku,  
 Fang Wang,  Jeff Yang,  F. Zeller

 Contributors to earlier versions of Q-Chem not listed above: 
 R. D. Adamson,  B. Austin,  R. Baer,  J. Baker,  G. J. O. Beran,  
 K. Brandhorst,  S. T. Brown,  E. F. C. Byrd,  Arup K. Chakraborty,  
 G. K. L. Chan,  Chun-Min Chang,  Yunqing Chen,  C.-L. Cheng,  
 Siu Hung Chien,  D. M. Chipman,  D. L. Crittenden,  H. Dachsel,  
 R. J. Doerksen,  A. D. Dutoi,  R. G. Edgar,  J. Fosso-Tande,  
 L. Fusti-Molnar,  D. Ghosh,  A. Ghysels,  A. Golubeva-Zadorozhnaya,  
 J. Gonthier,  M. S. Gordon,  S. R. Gwaltney,  G. Hawkins,  J. E. Herr,  
 A. Heyden,  S. Hirata,  E. G. Hohenstein,  G. Kedziora,  F. J. Keil,  
 C. Kelley,  Jihan Kim,  R. A. King,  R. Z. Khaliullin,  P. P. Korambath,  
 W. Kurlancheek,  A. Laurent,  A. M. Lee,  M. S. Lee,  S. V. Levchenko,  
 Ching Yeh Lin,  D. Liotard,  E. Livshits,  R. C. Lochan,  I. Lotan,  
 L. A. Martinez-Martinez,  P. E. Maslen,  N. Nair,  D. P. O'Neill,  
 D. Neuhauser,  E. Neuscamman,  C. M. Oana,  R. Olivares-Amaya,  R. Olson,  
 T. M. Perrine,  B. Peters,  P. A. Pieniazek,  A. Prociuk,  Y. M. Rhee,  
 J. Ritchie,  M. A. Rohrdanz,  E. Rosta,  N. J. Russ,  H. F. Schaefer III,  
 M. W. Schmidt,  N. E. Schultz,  S. Sharma,  N. Shenvi,  C. D. Sherrill,  
 A. C. Simmonett,  A. Sodt,  T. Stein,  D. Stuck,  K. S. Thanthiriwatte,  
 V. Vanovschi,  L. Vogt,  Tao Wang,  A. Warshel,  M. A. Watson,  
 C. F. Williams,  Q. Wu,  X. Xu,  Jun Yang,  W. Zhang,  Yan Zhao

   Please cite Q-Chem as follows:
  "Software for the frontiers of quantum chemistry:
   An overview of developments in the Q-Chem 5 package"
   J. Chem. Phys. 155, 084801 (2021)
   https://doi.org/10.1063/5.0055522 (open access)

 Q-Chem 5.4.2 for Intel X86 EM64T Linux

 Parts of Q-Chem use Armadillo 9.900.5 (Nocturnal Misbehaviour).
 http://arma.sourceforge.net/

 Q-Chem begins on Fri Aug 12 12:43:23 2022  

 Host: 
0

     Scratch files written to /home/a/aspuru/seifridm/acdc_laser/descriptor_computation/qchem239669//
 Dec1321 |scratch|qcdevops|jenkins|workspace|build_RNUM 6959   
 Processing $rem in /gpfs/fs1/scinet/niagara/software/commercial/qc54/config/preferences:
 Processing $rem in /home/a/aspuru/seifridm/.qchemrc:

 Checking the input file for inconsistencies... 	...done.

--------------------------------------------------------------
User input:
--------------------------------------------------------------
$molecule
0 1
C           -2.33480178700000        3.30025857590000        0.16577314590000
C           -2.81763362610000        2.08484085940000       -0.06190461860000
C           -2.05161320750000        0.84550494650000       -0.10957565100000
C           -2.72466159180000       -0.37840990110000       -0.09713634710000
C           -2.02749441460000       -1.56558157060000       -0.10470626670000
C           -0.63484848480000       -1.58362989640000       -0.14956437360000
O           -0.05852887580000       -2.82223706130000       -0.14509851390000
C            1.10524980550000       -3.05392061890000        0.62546986850000
C            0.06105099090000       -0.36490652770000       -0.23046275310000
C            1.50797537420000       -0.33553632990000       -0.44320105970000
C            2.34301032580000        0.60026565170000       -0.02380176560000
F            2.05717586100000        1.65758436060000        0.72922224760000
F            3.64937183640000        0.59470061090000       -0.28847467460000
C           -0.66354263500000        0.82309666340000       -0.19100192310000
H           -2.97897451510000        4.16227607930000        0.18992120330000
H           -1.29018937950000        3.48703188030000        0.34639731160000
H           -3.88325098110000        1.96001470100000       -0.21079955390000
H           -3.80409505920000       -0.39404007980000       -0.06037580920000
H           -2.54227753840000       -2.51322117440000       -0.07386465480000
H            0.92765149860000       -3.96473477510000        1.20257997800000
H            1.31103775170000       -2.23187921710000        1.31261409740000
H            1.97152382260000       -3.21654787960000       -0.02119899360000
H            1.94265821920000       -1.13057906290000       -1.02935108550000
H           -0.12766995880000        1.75458240360000       -0.27071301430000
$end

$rem
BASIS = 6-31G*
GUI = 2
METHOD = B3LYP
PRINT_ORBITALS false
MOLDEN_FORMAT false
$end
--------------------------------------------------------------
 ----------------------------------------------------------------
             Standard Nuclear Orientation (Angstroms)
    I     Atom           X                Y                Z
 ----------------------------------------------------------------
    1      C       3.4968843945    -1.9822667418     0.1890327085
    2      C       3.3971035676    -0.6751310768    -0.0198790307
    3      C       2.1634459028     0.0994204078    -0.0762002313
    4      C       2.2265008370     1.4943712968    -0.0408094057
    5      C       1.0769685420     2.2518834588    -0.0558685170
    6      C      -0.1795176523     1.6540921336    -0.1312916738
    7      O      -1.2435609536     2.5109023793    -0.1313132505
    8      C      -2.4028233688     2.1930085773     0.6149359741
    9      C      -0.2642103763     0.2547866914    -0.2355926785
   10      C      -1.5456181466    -0.4068719901    -0.4803625336
   11      C      -1.8884918680    -1.6216042137    -0.0856883348
   12      F      -1.1778485822    -2.4558614878     0.6664222149
   13      F      -3.0583606310    -2.1890632171    -0.3790489860
   14      C       0.9097547115    -0.4918661910    -0.1880520900
   15      H       4.4550074851    -2.4717070010     0.2216545486
   16      H       2.6392537503    -2.6137417605     0.3453446312
   17      H       4.3003985900    -0.0904604500    -0.1444180994
   18      H       3.1872837727     1.9842593465     0.0198379305
   19      H       1.1197476229     3.3288210580    -0.0074015598
   20      H      -2.6554563863     3.0795117947     1.2018501657
   21      H      -2.2359803371     1.3538785153     1.2919087048
   22      H      -3.2408366240     1.9667009804    -0.0495770594
   23      H      -2.2767734799     0.1237595469    -1.0706641736
   24      H       0.8417468939    -1.5628528350    -0.2857332679
 ----------------------------------------------------------------
 Molecular Point Group                 C1    NOp =  1
 Largest Abelian Subgroup              C1    NOp =  1
 Nuclear Repulsion Energy =         857.51281465 hartrees
 There are       51 alpha and       51 beta electrons
 Requested basis set is 6-31G(d)
 There are 76 shells and 230 basis functions

 Total QAlloc Memory Limit   8000 MB
 Mega-Array Size       188 MB
 MEM_STATIC part       192 MB
 A cutoff of  1.0D-08 yielded   1916 shell pairs
 There are     18803 function pairs
 Smallest overlap matrix eigenvalue = 3.44E-04

 Scale SEOQF with 1.000000e-01/1.000000e-01/1.000000e+00

 Standard Electronic Orientation quadrupole field applied
 Nucleus-field energy     =     0.0000000248 hartrees
 Guess from superposition of atomic densities
 Warning:  Energy on first SCF cycle will be non-variational
 SAD guess density has 102.000000 electrons

 -----------------------------------------------------------------------
  General SCF calculation program by
  Eric Jon Sundstrom, Paul Horn, Yuezhi Mao, Dmitri Zuev, Alec White,
  David Stuck, Shaama M.S., Shane Yost, Joonho Lee, David Small,
  Daniel Levine, Susi Lehtola, Hugh Burton, Evgeny Epifanovsky,
  Bang C. Huynh
 -----------------------------------------------------------------------
 Exchange:     0.2000 Hartree-Fock + 0.0800 Slater + 0.7200 B88
 Correlation:  0.1900 VWN1RPA + 0.8100 LYP
 Using SG-1 standard quadrature grid
 A restricted SCF calculation will be
 performed using DIIS
 SCF converges when DIIS error is below 1.0e-05
 ---------------------------------------
  Cycle       Energy         DIIS error
 ---------------------------------------
    1    -703.1188450553      5.25e-02  
    2    -699.8028660997      5.78e-03  
    3    -699.6563716963      7.47e-03  
    4    -700.0158034811      1.31e-03  
    5    -700.0264690016      4.18e-04  
    6    -700.0273467299      1.97e-04  
    7    -700.0275990453      4.15e-05  
    8    -700.0276097559      1.29e-05  
    9    -700.0276109141      4.07e-06  Convergence criterion met
 ---------------------------------------
 SCF time:   CPU 55.16s  wall 62.00s 
 SCF   energy in the final basis set =     -700.0276109141
 Total energy in the final basis set =     -700.0276109141
 
 --------------------------------------------------------------
 
                    Orbital Energies (a.u.)
 --------------------------------------------------------------
 
 Alpha MOs
 -- Occupied --
-24.7429 -24.7357 -19.1754 -10.3574 -10.2490 -10.2405 -10.2063 -10.2049
-10.1907 -10.1887 -10.1885 -10.1876 -10.1842 -10.1760  -1.2849  -1.2248
 -1.0645  -0.8683  -0.8147  -0.7883  -0.7406  -0.7393  -0.6926  -0.6470
 -0.6236  -0.6028  -0.5784  -0.5562  -0.5366  -0.5213  -0.5182  -0.4890
 -0.4771  -0.4696  -0.4443  -0.4426  -0.4405  -0.4357  -0.4311  -0.4216
 -0.4077  -0.3913  -0.3793  -0.3583  -0.3479  -0.3466  -0.3176  -0.2905
 -0.2720  -0.2330  -0.2076
 -- Virtual --
 -0.0255  -0.0217   0.0422   0.0744   0.0885   0.0995   0.1180   0.1268
  0.1356   0.1420   0.1505   0.1588   0.1638   0.1809   0.1864   0.2025
  0.2113   0.2405   0.2596   0.2768   0.3139   0.3388   0.3418   0.3646
  0.4031   0.4070   0.4318   0.4802   0.4944   0.4962   0.5068   0.5118
  0.5244   0.5341   0.5488   0.5578   0.5695   0.5748   0.5799   0.5921
  0.5959   0.6051   0.6122   0.6188   0.6275   0.6542   0.6596   0.6928
  0.6988   0.7071   0.7329   0.7686   0.7903   0.7980   0.8256   0.8320
  0.8372   0.8527   0.8727   0.8793   0.8838   0.8910   0.9227   0.9262
  0.9386   0.9586   0.9669   0.9807   0.9988   1.0184   1.0422   1.0460
  1.0891   1.0967   1.1034   1.1294   1.1443   1.1635   1.1859   1.2011
  1.2114   1.2221   1.2478   1.2660   1.2887   1.2981   1.3326   1.3552
  1.3949   1.4010   1.4088   1.4252   1.4466   1.4655   1.4694   1.4862
  1.5071   1.5189   1.5293   1.5788   1.6109   1.6499   1.6834   1.7145
  1.7322   1.7457   1.7700   1.8016   1.8126   1.8161   1.8367   1.8441
  1.8497   1.8755   1.8973   1.9455   1.9556   1.9666   1.9761   1.9841
  1.9989   2.0153   2.0404   2.0594   2.0682   2.0777   2.0993   2.1246
  2.1397   2.1534   2.1665   2.2099   2.2382   2.2461   2.2681   2.2823
  2.3190   2.3247   2.3387   2.3604   2.3743   2.4151   2.4779   2.5121
  2.5221   2.5526   2.5834   2.6052   2.6522   2.6538   2.6739   2.6964
  2.7399   2.7821   2.8057   2.8432   2.8980   2.9549   3.0096   3.0210
  3.0748   3.1300   3.1934   3.3178   3.4747   4.0509   4.0920   4.1089
  4.1221   4.1405   4.1916   4.2697   4.2879   4.3458   4.4445   4.5307
  4.7385   4.8488   5.2300
 --------------------------------------------------------------
 
          Ground-State Mulliken Net Atomic Charges

     Atom                 Charge (a.u.)
  ----------------------------------------
      1 C                    -0.353221
      2 C                    -0.118290
      3 C                     0.182239
      4 C                    -0.199841
      5 C                    -0.168446
      6 C                     0.291513
      7 O                    -0.515408
      8 C                    -0.215764
      9 C                     0.148059
     10 C                    -0.323213
     11 C                     0.555608
     12 F                    -0.237156
     13 F                    -0.248732
     14 C                    -0.262979
     15 H                     0.142230
     16 H                     0.143636
     17 H                     0.126132
     18 H                     0.130217
     19 H                     0.137394
     20 H                     0.161857
     21 H                     0.163738
     22 H                     0.151952
     23 H                     0.172469
     24 H                     0.136007
  ----------------------------------------
  Sum of atomic charges =     0.000000

 -----------------------------------------------------------------
                    Cartesian Multipole Moments
 -----------------------------------------------------------------
    Charge (ESU x 10^10)
                 0.0000
    Dipole Moment (Debye)
         X      -0.5339      Y       0.6525      Z       0.5032
       Tot       0.9818
    Quadrupole Moments (Debye-Ang)
        XX     -72.1134     XY      -2.4430     YY     -79.1506
        XZ      -1.2478     YZ       2.1787     ZZ     -81.3740
    Octopole Moments (Debye-Ang^2)
       XXX     -28.1722    XXY      10.1744    XYY      -1.4045
       YYY     -24.9021    XXZ       3.5045    XYZ      -4.5601
       YYZ       6.9750    XZZ     -24.1125    YZZ      -7.3032
       ZZZ       3.8243
    Hexadecapole Moments (Debye-Ang^3)
      XXXX   -2122.3671   XXXY      11.4954   XXYY    -588.2396
      XYYY      48.3658   YYYY   -1453.4395   XXXZ      -5.5639
      XXYZ      -0.5370   XYYZ      -8.4299   YYYZ      12.0961
      XXZZ    -414.4783   XYZZ      20.0944   YYZZ    -271.8175
      XZZZ       0.6545   YZZZ      -5.7391   ZZZZ    -137.8602
 -----------------------------------------------------------------
 Total job time:  64.38s(wall), 55.56s(cpu) 
 Fri Aug 12 12:44:27 2022

        *************************************************************
        *                                                           *
        *  Thank you very much for using Q-Chem.  Have a nice day.  *
        *                                                           *
        *************************************************************


