
Running Job 1 of 1 tidas/B031/conf-4/spe_input.inp
qchem tidas/B031/conf-4/spe_input.inp_134477.0 /home/a/aspuru/seifridm/acdc_laser/descriptor_computation/qchem134477/ 0
/gpfs/fs1/scinet/niagara/software/commercial/qc54/exe/qcprog.exe_s tidas/B031/conf-4/spe_input.inp_134477.0 /home/a/aspuru/seifridm/acdc_laser/descriptor_computation/qchem134477/
                  Welcome to Q-Chem
     A Quantum Leap Into The Future Of Chemistry


 Q-Chem 5.4, Q-Chem, Inc., Pleasanton, CA (2021)

 License issued to: SRG Alan Aspuru-Guzik, University of Toronto

 E. Epifanovsky,  A. T. B. Gilbert,  Xintian Feng,  Joonho Lee,  Yuezhi Mao,  
 N. Mardirossian,  P. Pokhilko,  A. White,  M. Wormit,  M. P. Coons,  
 A. L. Dempwolff,  Zhengting Gan,  D. Hait,  P. R. Horn,  L. D. Jacobson,  
 I. Kaliman,  J. Kussmann,  A. W. Lange,  Ka Un Lao,  D. S. Levine,  Jie Liu,  
 S. C. McKenzie,  A. F. Morrison,  K. Nanda,  F. Plasser,  D. R. Rehn,  
 M. L. Vidal,  Zhi-Qiang You,  Ying Zhu,  B. Alam,  B. Albrecht,  
 A. Aldossary,  E. Alguire,  J. H. Andersen,  D. Barton,  K. Begam,  A. Behn,  
 Y. A. Bernard,  E. J. Berquist,  H. Burton,  A. Carreras,  K. Carter-Fenk,  
 Romit Chakraborty,  A. D. Chien,  K. D. Closser,  V. Cofer-Shabica,  
 S. Dasgupta,  Jia Deng,  M. de Wergifosse,  M. Diedenhofen,  Hainam Do,  
 S. Ehlert,  Po-Tung Fang,  S. Fatehi,  Qingguo Feng,  T. Friedhoff,  
 J. Gayvert,  Qinghui Ge,  G. Gidofalvi,  M. Goldey,  J. Gomes,  
 C. Gonzalez-Espinoza,  S. Gulania,  A. Gunina,  M. W. D. Hanson-Heine,  
 P. H. P. Harbach,  A. W. Hauser,  M. F. Herbst,  M. Hernandez Vera,  
 M. Hodecker,  Z. C. Holden,  S. Houck,  Xunkun Huang,  Kerwin Hui,  
 B. C. Huynh,  M. Ivanov,  Hyunjun Ji,  Hanjie Jiang,  B. Kaduk,  S. Kaehler,  
 K. Khistyaev,  Jaehoon Kim,  P. Klunzinger,  Z. Koczor-Benda,  
 Joong Hoon Koh,  D. Kosenkov,  L. Koulias,  T. Kowalczyk,  C. M. Krauter,  
 K. Kue,  A. Kunitsa,  T. Kus,  A. Landau,  K. V. Lawler,  D. Lefrancois,  
 S. Lehtola,  Rain Li,  Yi-Pei Li,  Jiashu Liang,  M. Liebenthal,  
 Hung-Hsuan Lin,  You-Sheng Lin,  Fenglai Liu,  Kuan-Yu Liu,  
 M. Loipersberger,  A. Luenser,  A. Manjanath,  P. Manohar,  E. Mansoor,  
 S. F. Manzer,  Shan-Ping Mao,  A. V. Marenich,  T. Markovich,  S. Mason,  
 S. A. Maurer,  P. F. McLaughlin,  M. F. S. J. Menger,  J.-M. Mewes,  
 S. A. Mewes,  P. Morgante,  J. W. Mullinax,  K. J. Oosterbaan,  G. Paran,  
 Alexander C. Paul,  Suranjan K. Paul,  F. Pavosevic,  Zheng Pei,  S. Prager,  
 E. I. Proynov,  E. Ramos,  B. Rana,  A. E. Rask,  A. Rettig,  R. M. Richard,  
 F. Rob,  E. Rossomme,  T. Scheele,  M. Scheurer,  M. Schneider,  
 N. Sergueev,  S. M. Sharada,  W. Skomorowski,  D. W. Small,  C. J. Stein,  
 Yu-Chuan Su,  E. J. Sundstrom,  Zhen Tao,  J. Thirman,  T. Tsuchimochi,  
 N. M. Tubman,  S. P. Veccham,  O. Vydrov,  J. Wenzel,  J. Witte,  A. Yamada,  
 Kun Yao,  S. Yeganeh,  S. R. Yost,  A. Zech,  Igor Ying Zhang,  Xing Zhang,  
 Yu Zhang,  D. Zuev,  A. Aspuru-Guzik,  A. T. Bell,  N. A. Besley,  
 K. B. Bravaya,  B. R. Brooks,  D. Casanova,  Jeng-Da Chai,  S. Coriani,  
 C. J. Cramer,  A. E. DePrince, III,  R. A. DiStasio Jr.,  A. Dreuw,  
 B. D. Dunietz,  T. R. Furlani,  W. A. Goddard III,  S. Grimme,  
 S. Hammes-Schiffer,  T. Head-Gordon,  W. J. Hehre,  Chao-Ping Hsu,  
 T.-C. Jagau,  Yousung Jung,  A. Klamt,  Jing Kong,  D. S. Lambrecht,  
 WanZhen Liang,  N. J. Mayhall,  C. W. McCurdy,  J. B. Neaton,  T. Neudecker,  
 C. Ochsenfeld,  J. A. Parkhill,  R. Peverati,  V. A. Rassolov,  Yihan Shao,  
 L. V. Slipchenko,  R. P. Steele,  J. E. Subotnik,  A. J. W. Thom,  
 A. Tkatchenko,  D. G. Truhlar,  T. Van Voorhis,  T. A. Wesolowski,  
 K. B. Whaley,  H. L. Woodcock III,  P. M. Zimmerman,  S. Faraji,  
 P. M. W. Gill,  M. Head-Gordon,  J. M. Herbert,  A. I. Krylov

 Additional authors since Version 5.4.0: 
 Chandrima Chakravarty,  L. Cunha,  R. Kang,  Yongbin Kim,  S. Kotaru,  
 Shaozhi Li,  Xiangyuan Li,  F. Matz,  A. Molle,  V. Parravicini,  
 Haisheng Ren,  Hengyuan Shen,  Yingli Su,  Hung-Yi Tsai,  C. Utku,  
 Fang Wang,  Jeff Yang,  F. Zeller

 Contributors to earlier versions of Q-Chem not listed above: 
 R. D. Adamson,  B. Austin,  R. Baer,  J. Baker,  G. J. O. Beran,  
 K. Brandhorst,  S. T. Brown,  E. F. C. Byrd,  Arup K. Chakraborty,  
 G. K. L. Chan,  Chun-Min Chang,  Yunqing Chen,  C.-L. Cheng,  
 Siu Hung Chien,  D. M. Chipman,  D. L. Crittenden,  H. Dachsel,  
 R. J. Doerksen,  A. D. Dutoi,  R. G. Edgar,  J. Fosso-Tande,  
 L. Fusti-Molnar,  D. Ghosh,  A. Ghysels,  A. Golubeva-Zadorozhnaya,  
 J. Gonthier,  M. S. Gordon,  S. R. Gwaltney,  G. Hawkins,  J. E. Herr,  
 A. Heyden,  S. Hirata,  E. G. Hohenstein,  G. Kedziora,  F. J. Keil,  
 C. Kelley,  Jihan Kim,  R. A. King,  R. Z. Khaliullin,  P. P. Korambath,  
 W. Kurlancheek,  A. Laurent,  A. M. Lee,  M. S. Lee,  S. V. Levchenko,  
 Ching Yeh Lin,  D. Liotard,  E. Livshits,  R. C. Lochan,  I. Lotan,  
 L. A. Martinez-Martinez,  P. E. Maslen,  N. Nair,  D. P. O'Neill,  
 D. Neuhauser,  E. Neuscamman,  C. M. Oana,  R. Olivares-Amaya,  R. Olson,  
 T. M. Perrine,  B. Peters,  P. A. Pieniazek,  A. Prociuk,  Y. M. Rhee,  
 J. Ritchie,  M. A. Rohrdanz,  E. Rosta,  N. J. Russ,  H. F. Schaefer III,  
 M. W. Schmidt,  N. E. Schultz,  S. Sharma,  N. Shenvi,  C. D. Sherrill,  
 A. C. Simmonett,  A. Sodt,  T. Stein,  D. Stuck,  K. S. Thanthiriwatte,  
 V. Vanovschi,  L. Vogt,  Tao Wang,  A. Warshel,  M. A. Watson,  
 C. F. Williams,  Q. Wu,  X. Xu,  Jun Yang,  W. Zhang,  Yan Zhao

   Please cite Q-Chem as follows:
  "Software for the frontiers of quantum chemistry:
   An overview of developments in the Q-Chem 5 package"
   J. Chem. Phys. 155, 084801 (2021)
   https://doi.org/10.1063/5.0055522 (open access)

 Q-Chem 5.4.2 for Intel X86 EM64T Linux

 Parts of Q-Chem use Armadillo 9.900.5 (Nocturnal Misbehaviour).
 http://arma.sourceforge.net/

 Q-Chem begins on Fri Aug 12 13:11:43 2022  

 Host: 
0

     Scratch files written to /home/a/aspuru/seifridm/acdc_laser/descriptor_computation/qchem134477//
 Dec1321 |scratch|qcdevops|jenkins|workspace|build_RNUM 6959   
 Processing $rem in /gpfs/fs1/scinet/niagara/software/commercial/qc54/config/preferences:
 Processing $rem in /home/a/aspuru/seifridm/.qchemrc:

 Checking the input file for inconsistencies... 	...done.

--------------------------------------------------------------
User input:
--------------------------------------------------------------
$molecule
0 1
C           -4.32147572700000       -0.76135998680000        0.75506106560000
C           -3.67022807320000        0.16074907660000        0.05878285820000
C           -2.21832837900000        0.21596508410000       -0.10023707680000
C           -1.46775496970000       -0.95503293350000       -0.12371032440000
C           -0.08862954760000       -0.96445753900000       -0.26849384610000
C            0.63065463420000       -2.27666168250000       -0.33084580690000
C            0.56872382910000        0.26347039910000       -0.39257053610000
C            2.01891630270000        0.40228802730000       -0.54402907630000
C            2.95239758720000       -0.19633126410000        0.17377723790000
F            2.77877652070000       -1.03887057540000        1.18529889080000
F            4.26035540270000       -0.00292152370000       -0.00732699570000
C           -0.18334505750000        1.43828849300000       -0.41054657310000
C           -1.55708201190000        1.44338980010000       -0.26086126220000
C           -2.30639368280000        2.74201647460000       -0.25568407420000
H           -5.39522764890000       -0.75504484870000        0.83443037340000
H           -3.81036221430000       -1.54532392990000        1.28832260720000
H           -4.22946292210000        0.94876577410000       -0.42774026680000
H           -1.98381083550000       -1.90094736990000       -0.04895686350000
H           -0.03465626610000       -3.05188096070000       -0.70413018850000
H            0.96985092420000       -2.57402275430000        0.66088953110000
H            1.50070645310000       -2.21868546210000       -0.98162370220000
H            2.37053635540000        1.11288938330000       -1.27855557030000
H            0.33630325070000        2.37936021210000       -0.52694688740000
H           -1.61616595830000        3.58080761960000       -0.29850217460000
H           -2.91007357830000        2.83447836160000        0.64573719400000
H           -2.97284818700000        2.80470474580000       -1.11609336220000
$end

$rem
BASIS = 6-31G*
GUI = 2
METHOD = B3LYP
PRINT_ORBITALS false
MOLDEN_FORMAT false
$end
--------------------------------------------------------------
 ----------------------------------------------------------------
             Standard Nuclear Orientation (Angstroms)
    I     Atom           X                Y                Z
 ----------------------------------------------------------------
    1      C       4.0287380145    -1.5124596535    -0.5689231642
    2      C       3.5305060183    -0.4035181616    -0.0386160655
    3      C       2.1051046480    -0.1050740108     0.0859266643
    4      C       1.1858402317    -1.1304215722     0.2828101437
    5      C      -0.1775489208    -0.9082983810     0.4047499977
    6      C      -1.0869877168    -2.0699320890     0.6629464737
    7      C      -0.6400556813     0.4086972955     0.3215310543
    8      C      -2.0511521394     0.7872395139     0.4253617264
    9      C      -3.0703825181     0.2297409114    -0.2034013552
   10      F      -3.0347143826    -0.7797129499    -1.0653314603
   11      F      -4.3323757421     0.6447930002    -0.0766552136
   12      C       0.2816007550     1.4441539406     0.1649831336
   13      C       1.6389687317     1.2178451060     0.0388030130
   14      C       2.5764891276     2.3708138914    -0.1603062793
   15      H       5.0903522228    -1.6810790906    -0.6307723021
   16      H       3.4003575137    -2.2851323481    -0.9791904089
   17      H       4.2066870465     0.3583912255     0.3256530465
   18      H       1.5518550468    -2.1430882971     0.3676341791
   19      H      -0.5439461587    -2.8671773675     1.1653910825
   20      H      -1.4753503966    -2.4669275288    -0.2743825830
   21      H      -1.9329024186    -1.7782505882     1.2819888778
   22      H      -2.2849992955     1.6506917720     1.0318976482
   23      H      -0.0883630966     2.4592780998     0.1219823463
   24      H       2.0218192794     3.3001787994    -0.2624851110
   25      H       3.1799131169     2.2261600944    -1.0550094075
   26      H       3.2516649592     2.4685140322     0.6899806413
 ----------------------------------------------------------------
 Molecular Point Group                 C1    NOp =  1
 Largest Abelian Subgroup              C1    NOp =  1
 Nuclear Repulsion Energy =         848.54121313 hartrees
 There are       51 alpha and       51 beta electrons
 Requested basis set is 6-31G(d)
 There are 80 shells and 234 basis functions

 Total QAlloc Memory Limit   8000 MB
 Mega-Array Size       188 MB
 MEM_STATIC part       192 MB
 A cutoff of  1.0D-08 yielded   2129 shell pairs
 There are     19471 function pairs
 Smallest overlap matrix eigenvalue = 2.94E-04

 Scale SEOQF with 1.000000e-01/1.000000e-01/1.000000e+00

 Standard Electronic Orientation quadrupole field applied
 Nucleus-field energy     =     0.0000000102 hartrees
 Guess from superposition of atomic densities
 Warning:  Energy on first SCF cycle will be non-variational
 SAD guess density has 102.000000 electrons

 -----------------------------------------------------------------------
  General SCF calculation program by
  Eric Jon Sundstrom, Paul Horn, Yuezhi Mao, Dmitri Zuev, Alec White,
  David Stuck, Shaama M.S., Shane Yost, Joonho Lee, David Small,
  Daniel Levine, Susi Lehtola, Hugh Burton, Evgeny Epifanovsky,
  Bang C. Huynh
 -----------------------------------------------------------------------
 Exchange:     0.2000 Hartree-Fock + 0.0800 Slater + 0.7200 B88
 Correlation:  0.1900 VWN1RPA + 0.8100 LYP
 Using SG-1 standard quadrature grid
 A restricted SCF calculation will be
 performed using DIIS
 SCF converges when DIIS error is below 1.0e-05
 ---------------------------------------
  Cycle       Energy         DIIS error
 ---------------------------------------
    1    -667.2115772633      5.19e-02  
    2    -663.8880259720      5.97e-03  
    3    -663.7460470992      7.49e-03  
    4    -664.1289326878      1.46e-03  
    5    -664.1428807292      4.20e-04  
    6    -664.1437485731      2.27e-04  
    7    -664.1441173251      4.95e-05  
    8    -664.1441317623      1.85e-05  
    9    -664.1441341243      6.51e-06  Convergence criterion met
 ---------------------------------------
 SCF time:   CPU 61.94s  wall 64.00s 
 SCF   energy in the final basis set =     -664.1441341243
 Total energy in the final basis set =     -664.1441341243
 
 --------------------------------------------------------------
 
                    Orbital Energies (a.u.)
 --------------------------------------------------------------
 
 Alpha MOs
 -- Occupied --
-24.7388 -24.7308 -10.3532 -10.1987 -10.1975 -10.1914 -10.1910 -10.1888
-10.1883 -10.1820 -10.1809 -10.1794 -10.1793 -10.1749  -1.2806  -1.2200
 -0.8714  -0.8181  -0.7827  -0.7766  -0.7255  -0.7166  -0.6567  -0.6437
 -0.6150  -0.5855  -0.5706  -0.5505  -0.5180  -0.5117  -0.4916  -0.4691
 -0.4543  -0.4408  -0.4384  -0.4328  -0.4302  -0.4206  -0.4093  -0.4072
 -0.4008  -0.3938  -0.3733  -0.3724  -0.3481  -0.3380  -0.3316  -0.2984
 -0.2625  -0.2372  -0.2130
 -- Virtual --
 -0.0329   0.0064   0.0261   0.0680   0.1008   0.1053   0.1170   0.1290
  0.1386   0.1475   0.1536   0.1569   0.1749   0.1799   0.1834   0.1910
  0.2044   0.2166   0.2320   0.2542   0.2629   0.3065   0.3146   0.3500
  0.3550   0.3673   0.3931   0.4089   0.4259   0.4796   0.4889   0.5036
  0.5063   0.5111   0.5309   0.5376   0.5451   0.5641   0.5705   0.5762
  0.5858   0.5914   0.6018   0.6035   0.6160   0.6338   0.6418   0.6542
  0.6875   0.6928   0.6972   0.7271   0.7297   0.7450   0.7523   0.7679
  0.7730   0.8074   0.8244   0.8418   0.8534   0.8583   0.8665   0.8715
  0.8933   0.9084   0.9238   0.9330   0.9479   0.9589   0.9650   0.9787
  0.9820   0.9908   1.0089   1.0310   1.0526   1.0853   1.1006   1.1236
  1.1509   1.1771   1.1881   1.1988   1.2201   1.2272   1.2520   1.2595
  1.2737   1.3071   1.3231   1.3472   1.3665   1.3848   1.4183   1.4243
  1.4522   1.4552   1.4775   1.4877   1.5122   1.5303   1.5512   1.5801
  1.6128   1.6828   1.7016   1.7280   1.7683   1.7763   1.7845   1.8179
  1.8307   1.8365   1.8436   1.8689   1.8849   1.8884   1.9186   1.9315
  1.9380   1.9591   1.9718   1.9874   2.0002   2.0139   2.0190   2.0330
  2.0711   2.0817   2.1188   2.1339   2.1657   2.1887   2.2078   2.2136
  2.2466   2.2536   2.2706   2.2820   2.3053   2.3169   2.3513   2.3672
  2.3817   2.3861   2.4184   2.4458   2.4659   2.5205   2.5301   2.5567
  2.6057   2.6300   2.6748   2.7107   2.7400   2.7534   2.7798   2.8518
  2.8788   2.9343   2.9769   3.0270   3.0540   3.1296   3.1781   3.2853
  3.4755   4.1025   4.1167   4.1303   4.1378   4.1458   4.2253   4.2508
  4.2842   4.3435   4.4169   4.5395   4.7878   4.8051   5.2503
 --------------------------------------------------------------
 
          Ground-State Mulliken Net Atomic Charges

     Atom                 Charge (a.u.)
  ----------------------------------------
      1 C                    -0.338418
      2 C                    -0.130160
      3 C                     0.122025
      4 C                    -0.258958
      5 C                     0.143418
      6 C                    -0.536898
      7 C                     0.129269
      8 C                    -0.345031
      9 C                     0.565245
     10 F                    -0.234518
     11 F                    -0.250262
     12 C                    -0.251423
     13 C                     0.127785
     14 C                    -0.535996
     15 H                     0.141829
     16 H                     0.144787
     17 H                     0.131157
     18 H                     0.122315
     19 H                     0.153906
     20 H                     0.171669
     21 H                     0.155609
     22 H                     0.167337
     23 H                     0.119183
     24 H                     0.156303
     25 H                     0.167463
     26 H                     0.162364
  ----------------------------------------
  Sum of atomic charges =     0.000000

 -----------------------------------------------------------------
                    Cartesian Multipole Moments
 -----------------------------------------------------------------
    Charge (ESU x 10^10)
                 0.0000
    Dipole Moment (Debye)
         X       1.0763      Y       0.4993      Z       0.4447
       Tot       1.2671
    Quadrupole Moments (Debye-Ang)
        XX     -80.3902     XY       0.2295     YY     -74.6580
        XZ      -1.6550     YZ       0.7892     ZZ     -82.5725
    Octopole Moments (Debye-Ang^2)
       XXX     -13.3425    XXY       0.6623    XYY     -15.2253
       YYY       0.1932    XXZ       0.1535    XYZ       2.7326
       YYZ      -2.8879    XZZ     -24.0970    YZZ       0.4147
       ZZZ     -10.2557
    Hexadecapole Moments (Debye-Ang^3)
      XXXX   -3104.9395   XXXY       3.5733   XXYY    -661.2837
      XYYY     -13.9390   YYYY    -926.7272   XXXZ      14.3627
      XXYZ      17.1784   XYYZ      -0.6904   YYYZ      12.6818
      XXZZ    -561.1864   XYZZ       0.6542   YYZZ    -189.2559
      XZZZ      31.7217   YZZZ       6.9220   ZZZZ    -189.5495
 -----------------------------------------------------------------
 Total job time:  67.19s(wall), 62.43s(cpu) 
 Fri Aug 12 13:12:50 2022

        *************************************************************
        *                                                           *
        *  Thank you very much for using Q-Chem.  Have a nice day.  *
        *                                                           *
        *************************************************************


