19
 energy: -35.167688786340 gnorm: 0.000043494716 xtb: 6.5.0 (unknown)
C           -3.62521874990000       -2.20997703100000       -0.01036609990000
C           -3.47269343490000       -0.89199900840000        0.00294815750000
C           -2.20961358360000       -0.16085189280000        0.00162635040000
C           -0.95712998080000       -0.77434484870000       -0.00318169400000
C            0.19770638200000        0.00636255020000       -0.00371701810000
C            1.48789199750000       -0.66793697850000       -0.00813886880000
C            2.69451146590000       -0.12133415250000       -0.00041272310000
F            3.00658751230000        1.16627401930000        0.01303849520000
F            3.81514471970000       -0.83691780030000       -0.00502037400000
C            0.04159760430000        1.39472459520000       -0.00011604360000
C           -1.24548060170000        1.90826609420000        0.00465695690000
N           -2.33481110370000        1.16767803360000        0.00590161600000
H           -4.60404976150000       -2.65772281030000       -0.00838428860000
H           -2.79590133540000       -2.89705908900000       -0.02389848700000
H           -4.33668018710000       -0.24188381460000        0.01505388980000
H           -0.87605559280000       -1.84973607170000       -0.00561152640000
H            1.46853656430000       -1.74825218590000       -0.01800702000000
H            0.88749085480000        2.06038239870000       -0.00108004410000
H           -1.41104509440000        2.97790582550000        0.00779895630000
