
Running Job 1 of 1 fragments/A029/conf-0/spe_input.inp
qchem fragments/A029/conf-0/spe_input.inp_80727.0 /gpfs/fs0/scratch/a/aspuru/rhickman/descriptor_computation/qchem80727/ 0
/scinet/niagara/software/commercial/qc52/exe/qcprog.exe_s fragments/A029/conf-0/spe_input.inp_80727.0 /gpfs/fs0/scratch/a/aspuru/rhickman/descriptor_computation/qchem80727/
                  Welcome to Q-Chem
     A Quantum Leap Into The Future Of Chemistry


 Q-Chem 5.2, Q-Chem, Inc., Pleasanton, CA (2019)

 License issued to: SRG Alan Aspuru-Guzik, University of Toronto

 Yihan Shao,  Zhengting Gan,  E. Epifanovsky,  A. T. B. Gilbert,  M. Wormit,  
 J. Kussmann,  A. W. Lange,  A. Behn,  Jia Deng,  Xintian Feng,  D. Ghosh,  
 M. Goldey,  P. R. Horn,  L. D. Jacobson,  I. Kaliman,  T. Kus,  A. Landau,  
 Jie Liu,  E. I. Proynov,  R. M. Richard,  R. P. Steele,  E. J. Sundstrom,  
 H. L. Woodcock III,  P. M. Zimmerman,  D. Zuev,  B. Albrecht,  E. Alguire,  
 S. A. Baeppler,  D. Barton,  Z. Benda,  Y. A. Bernard,  E. J. Berquist,  
 K. B. Bravaya,  H. Burton,  D. Casanova,  Chun-Min Chang,  Yunqing Chen,  
 A. Chien,  K. D. Closser,  M. P. Coons,  S. Coriani,  S. Dasgupta,  
 A. L. Dempwolff,  M. Diedenhofen,  Hainam Do,  R. G. Edgar,  Po-Tung Fang,  
 S. Faraji,  S. Fatehi,  Qingguo Feng,  K. D. Fenk,  J. Fosso-Tande,  
 J. Gayvert,  Qinghui Ge,  A. Ghysels,  G. Gidofalvi,  J. Gomes,  
 J. Gonthier,  A. Gunina,  D. Hait,  M. W. D. Hanson-Heine,  
 P. H. P. Harbach,  A. W. Hauser,  M. F. Herbst,  J. E. Herr,  
 E. G. Hohenstein,  Z. C. Holden,  Kerwin Hui,  B. C. Huynh,  T.-C. Jagau,  
 Hyunjun Ji,  B. Kaduk,  K. Khistyaev,  Jaehoon Kim,  P. Klunzinger,  K. Koh,  
 D. Kosenkov,  L. Koulias,  T. Kowalczyk,  C. M. Krauter,  A. Kunitsa,  
 Ka Un Lao,  A. Laurent,  K. V. Lawler,  Joonho Lee,  D. Lefrancois,  
 S. Lehtola,  D. S. Levine,  Yi-Pei Li,  You-Sheng Lin,  Fenglai Liu,  
 E. Livshits,  A. Luenser,  P. Manohar,  E. Mansoor,  S. F. Manzer,  
 Shan-Ping Mao,  Yuezhi Mao,  N. Mardirossian,  A. V. Marenich,  
 T. Markovich,  L. A. Martinez-Martinez,  S. A. Maurer,  N. J. Mayhall,  
 S. C. McKenzie,  J.-M. Mewes,  P. Morgante,  A. F. Morrison,  
 J. W. Mullinax,  K. Nanda,  T. S. Nguyen-Beck,  R. Olivares-Amaya,  
 J. A. Parkhill,  Zheng Pei,  T. M. Perrine,  F. Plasser,  P. Pokhilko,  
 S. Prager,  A. Prociuk,  E. Ramos,  D. R. Rehn,  F. Rob,  M. Scheurer,  
 M. Schneider,  N. Sergueev,  S. M. Sharada,  S. Sharma,  D. W. Small,  
 T. Stauch,  T. Stein,  Yu-Chuan Su,  A. J. W. Thom,  A. Tkatchenko,  
 T. Tsuchimochi,  N. M. Tubman,  L. Vogt,  M. L. Vidal,  O. Vydrov,  
 M. A. Watson,  J. Wenzel,  M. de Wergifosse,  T. A. Wesolowski,  A. White,  
 J. Witte,  A. Yamada,  Jun Yang,  K. Yao,  S. Yeganeh,  S. R. Yost,  
 Zhi-Qiang You,  A. Zech,  Igor Ying Zhang,  Xing Zhang,  Yan Zhao,  
 Ying Zhu,  B. R. Brooks,  G. K. L. Chan,  C. J. Cramer,  M. S. Gordon,  
 W. J. Hehre,  A. Klamt,  M. W. Schmidt,  C. D. Sherrill,  D. G. Truhlar,  
 A. Aspuru-Guzik,  R. Baer,  A. T. Bell,  N. A. Besley,  Jeng-Da Chai,  
 A. E. DePrince, III,  R. A. DiStasio Jr.,  A. Dreuw,  B. D. Dunietz,  
 T. R. Furlani,  Chao-Ping Hsu,  Yousung Jung,  Jing Kong,  D. S. Lambrecht,  
 WanZhen Liang,  C. Ochsenfeld,  V. A. Rassolov,  L. V. Slipchenko,  
 J. E. Subotnik,  T. Van Voorhis,  J. M. Herbert,  A. I. Krylov,  
 P. M. W. Gill,  M. Head-Gordon

 Contributors to earlier versions of Q-Chem not listed above: 
 R. D. Adamson,  B. Austin,  J. Baker,  G. J. O. Beran,  K. Brandhorst,  
 S. T. Brown,  E. F. C. Byrd,  A. K. Chakraborty,  C.-L. Cheng,  
 Siu Hung Chien,  D. M. Chipman,  D. L. Crittenden,  H. Dachsel,  
 R. J. Doerksen,  A. D. Dutoi,  L. Fusti-Molnar,  W. A. Goddard III,  
 A. Golubeva-Zadorozhnaya,  S. R. Gwaltney,  G. Hawkins,  A. Heyden,  
 S. Hirata,  G. Kedziora,  F. J. Keil,  C. Kelley,  Jihan Kim,  R. A. King,  
 R. Z. Khaliullin,  P. P. Korambath,  W. Kurlancheek,  A. M. Lee,  M. S. Lee,  
 S. V. Levchenko,  Ching Yeh Lin,  D. Liotard,  R. C. Lochan,  I. Lotan,  
 P. E. Maslen,  N. Nair,  D. P. O'Neill,  D. Neuhauser,  E. Neuscamman,  
 C. M. Oana,  R. Olson,  B. Peters,  R. Peverati,  P. A. Pieniazek,  
 Y. M. Rhee,  J. Ritchie,  M. A. Rohrdanz,  E. Rosta,  N. J. Russ,  
 H. F. Schaefer III,  N. E. Schultz,  N. Shenvi,  A. C. Simmonett,  A. Sodt,  
 D. Stuck,  K. S. Thanthiriwatte,  V. Vanovschi,  Tao Wang,  A. Warshel,  
 C. F. Williams,  Q. Wu,  X. Xu,  W. Zhang

 Please cite Q-Chem as follows:
 Y. Shao et al., Mol. Phys. 113, 184-215 (2015)
 DOI: 10.1080/00268976.2014.952696

 Q-Chem 5.2.1 for Intel X86 EM64T Linux

 Parts of Q-Chem use Armadillo 8.300.2 (Tropical Shenanigans).
 http://arma.sourceforge.net/

 Q-Chem begins on Mon Feb  7 14:32:34 2022  

Host: 
0

     Scratch files written to /gpfs/fs0/scratch/a/aspuru/rhickman/descriptor_computation/qchem80727//
 Jul1719 |scratch|qcdevops|jenkins|workspace|build_RNUM -1
Processing $rem in /scinet/niagara/software/commercial/qc52/config/preferences:
	 MEM_TOTAL  4000 
NAlpha2: 174
NElect   174
Mult     1

Checking the input file for inconsistencies... 	...done.

--------------------------------------------------------------
User input:
--------------------------------------------------------------
$molecule
0 1
C         0.89364891730000    4.65046077650000   -0.32600976430000
O         2.21543683120000    4.19149374910000   -0.19272452250000
C         2.43512254810000    2.84953576440000   -0.09781034970000
C         3.78346667580000    2.47830169140000    0.03237973350000
C         4.15564958510000    1.15766732630000    0.11819588720000
C         1.43418968330000    1.88931232110000   -0.12569858630000
C         1.81500052880000    0.55866128190000   -0.01082796850000
C         3.16897517580000    0.17832393510000    0.09279349130000
C         3.19158446640000   -1.25654653300000    0.13442849470000
C         4.21012339960000   -2.19286165670000    0.25093979290000
C         3.87672568920000   -3.53244562330000    0.28614988060000
C         2.54726428850000   -3.94144234820000    0.22427671630000
C         1.51604933120000   -3.02764682460000    0.10834180420000
C         1.84699427140000   -1.68292034010000    0.04446738910000
N         1.02270081000000   -0.57338800900000   -0.04105374970000
C        -0.36958111920000   -0.59636463070000   -0.14098859250000
C        -0.99761309900000   -1.41854568420000   -1.07534937220000
C        -2.37239421160000   -1.43692765350000   -1.16770072300000
C        -3.16486295080000   -0.63371556770000   -0.34264620270000
C        -4.60701663080000   -0.70116626420000   -0.50125291230000
C        -5.54144053480000   -0.01425909400000    0.14030304230000
F        -5.37876752420000    0.90568431980000    1.08446562320000
F        -6.84391624120000   -0.16344356400000   -0.09526843420000
C        -2.52707499830000    0.18763559630000    0.59034507540000
C        -1.15197095710000    0.20222185000000    0.69195613300000
H         0.96204239800000    5.73592069370000   -0.37807883970000
H         0.28007007220000    4.36872129770000    0.53625789900000
H         0.42609438130000    4.27403563140000   -1.24200319900000
H         4.51734537230000    3.26783135640000    0.05077773540000
H         5.19620070630000    0.88445263700000    0.20020013660000
H         0.39587484170000    2.15154921970000   -0.24806491840000
H         5.23931722640000   -1.87439516860000    0.31772191560000
H         4.65415890860000   -4.27674352090000    0.37362098820000
H         2.31507775760000   -4.99508573820000    0.27200438450000
H         0.48771966220000   -3.35547321450000    0.08250576530000
H        -0.39892966010000   -2.02612094120000   -1.73677418700000
H        -2.84631509270000   -2.07572340290000   -1.89849321890000
H        -4.97836618260000   -1.39828696590000   -1.23868876500000
H        -3.10497224630000    0.81173205400000    1.25183050430000
H        -0.67239441330000    0.81959322660000    1.43636383090000
$end

$rem
BASIS = 6-31G*
GUI = 2
METHOD = B3LYP
PRINT_ORBITALS false
MOLDEN_FORMAT false
--------------------------------------------------------------
 ----------------------------------------------------------------
             Standard Nuclear Orientation (Angstroms)
    I     Atom           X                Y                Z
 ----------------------------------------------------------------
    1      C      -0.8224669756    -4.6454679959    -0.3240483669
    2      O      -2.1447930492    -4.1864870108    -0.1962626566
    3      C      -2.3647838321    -2.8445823938    -0.1013005520
    4      C      -3.7136595329    -2.4733296654     0.0232058202
    5      C      -4.0861075576    -1.1527284286     0.1083791650
    6      C      -1.3636567733    -1.8844254336    -0.1240302360
    7      C      -1.7448603409    -0.5538288607    -0.0098332689
    8      C      -3.0992482064    -0.1734521708     0.0880867636
    9      C      -3.1219209928     1.2613881985     0.1307127288
   10      C      -4.1408867715     2.1977034120     0.2434292527
   11      C      -3.8075356191     3.5372311049     0.2811327841
   12      C      -2.4777791765     3.9461586572     0.2254525734
   13      C      -1.4461381569     3.0323614921     0.1133856346
   14      C      -1.7769101885     1.6877128606     0.0470250036
   15      N      -0.9523396187     0.5781738922    -0.0356927247
   16      C       0.4403727065     0.6011049049    -0.1294499435
   17      C       1.0726010295     1.4239412214    -1.0603976664
   18      C       2.4477787755     1.4422733460    -1.1466523841
   19      C       3.2365224126     0.6383650498    -0.3187114169
   20      C       4.6793692893     0.7058103745    -0.4708854619
   21      C       5.6108882345     0.0183340682     0.1742752304
   22      F       5.4439627559    -0.9023126680     1.1170089381
   23      F       6.9144058469     0.1675838517    -0.0554185412
   24      C       2.5945443406    -0.1836394844     0.6108242913
   25      C       1.2190030243    -0.1981829059     0.7063400811
   26      H      -0.8907205751    -5.7308820376    -0.3772451039
   27      H      -0.2126850157    -4.3644377152     0.5411392423
   28      H      -0.3508332047    -4.2683874077    -1.2376778993
   29      H      -4.4476787231    -3.2628090022     0.0377565865
   30      H      -5.1269883280    -0.8794852993     0.1859872394
   31      H      -0.3248327835    -2.1466598949    -0.2420015293
   32      H      -5.1703926951     1.8792761180     0.3054155478
   33      H      -4.5852856965     4.2815301723     0.3657299538
   34      H      -2.2457175958     4.9997451787     0.2750083300
   35      H      -0.4176767357     3.3601176315     0.0923483073
   36      H       0.4769004990     2.0320714253    -1.7240021207
   37      H       2.9249815583     2.0815831073    -1.8748551144
   38      H       5.0540360328     1.4034590783    -1.2061408709
   39      H       3.1694572284    -0.8082891151     1.2743848392
   40      H       0.7360862015    -0.8160781577     1.4481491527
 ----------------------------------------------------------------
 Molecular Point Group                 C1    NOp =  1
 Largest Abelian Subgroup              C1    NOp =  1
 Nuclear Repulsion Energy =        2007.02893548 hartrees
 There are       87 alpha and       87 beta electrons
 Requested basis set is 6-31G(d)
 There are 130 shells and 405 basis functions

 Total QAlloc Memory Limit   4000 MB
 Mega-Array Size       188 MB
 MEM_STATIC part       192 MB
 A cutoff of  1.0D-08 yielded   3920 shell pairs
 There are     41041 function pairs
 Smallest overlap matrix eigenvalue = 2.56E-04

 Scale SEOQF with 1.000000e-02/1.000000e-02/1.000000e-01

 Standard Electronic Orientation quadrupole field applied
 Nucleus-field energy     =     0.0000000079 hartrees
 Guess from superposition of atomic densities
 Warning:  Energy on first SCF cycle will be non-variational
 SAD guess density has 174.000000 electrons

 -----------------------------------------------------------------------
  General SCF calculation program by
  Eric Jon Sundstrom, Paul Horn, Yuezhi Mao, Dmitri Zuev, Alec White,
  David Stuck, Shaama M.S., Shane Yost, Joonho Lee, David Small,
  Daniel Levine, Susi Lehtola, Hugh Burton, Evgeny Epifanovsky,
  Bang C. Huynh
 -----------------------------------------------------------------------
 Exchange:     0.2000 Hartree-Fock + 0.0800 Slater + 0.7200 B88
 Correlation:  0.1900 VWN1RPA + 0.8100 LYP
 Using SG-1 standard quadrature grid
 A restricted SCF calculation will be
 performed using DIIS
 SCF converges when DIIS error is below 1.0e-05
 ---------------------------------------
  Cycle       Energy         DIIS error
 ---------------------------------------
    1   -1145.4735770250      4.14e-02  
    2   -1138.5628692739      4.02e-03  
    3   -1138.3476923401      5.21e-03  
    4   -1138.8714709077      1.31e-03  
    5   -1138.9043099340      4.49e-04  
    6   -1138.9079031756      2.21e-04  
    7   -1138.9089593601      4.69e-05  
    8   -1138.9089942351      2.25e-05  
    9   -1138.9090049188      4.34e-06  Convergence criterion met
 ---------------------------------------
 SCF time:   CPU 123.24s  wall 124.00s 
 SCF   energy in the final basis set =    -1138.9090049188
 Total energy in the final basis set =    -1138.9090049188
 
 --------------------------------------------------------------
 
                    Orbital Energies (a.u.)
 --------------------------------------------------------------
 
 Alpha MOs
 -- Occupied --
-24.7504 -24.7395 -19.1755 -14.3825 -10.3627 -10.2437 -10.2386 -10.2386
-10.2222 -10.2175 -10.2142 -10.2094 -10.2016 -10.1998 -10.1996 -10.1990
-10.1858 -10.1829 -10.1823 -10.1814 -10.1806 -10.1797 -10.1777 -10.1748
-10.1738  -1.2910  -1.2301  -1.0657  -1.0013  -0.8823  -0.8509  -0.8460
 -0.8143  -0.7828  -0.7667  -0.7537  -0.7510  -0.7332  -0.7174  -0.6910
 -0.6585  -0.6337  -0.6323  -0.6121  -0.6063  -0.5832  -0.5786  -0.5728
 -0.5474  -0.5370  -0.5303  -0.5246  -0.5069  -0.4937  -0.4817  -0.4712
 -0.4697  -0.4617  -0.4575  -0.4491  -0.4465  -0.4418  -0.4396  -0.4360
 -0.4332  -0.4321  -0.4178  -0.4145  -0.4079  -0.3890  -0.3854  -0.3825
 -0.3681  -0.3620  -0.3590  -0.3467  -0.3384  -0.3336  -0.3278  -0.3181
 -0.2987  -0.2675  -0.2610  -0.2513  -0.2352  -0.1966  -0.1939
 -- Virtual --
 -0.0386  -0.0167  -0.0133   0.0101   0.0315   0.0543   0.0621   0.0796
  0.0983   0.1052   0.1129   0.1175   0.1340   0.1353   0.1462   0.1525
  0.1564   0.1594   0.1657   0.1675   0.1690   0.1761   0.1791   0.1891
  0.1921   0.2016   0.2083   0.2139   0.2158   0.2351   0.2655   0.2720
  0.2734   0.2840   0.2945   0.3053   0.3122   0.3221   0.3280   0.3498
  0.3528   0.3708   0.4041   0.4056   0.4175   0.4281   0.4382   0.4591
  0.4751   0.4899   0.4935   0.5098   0.5174   0.5216   0.5261   0.5292
  0.5315   0.5373   0.5397   0.5448   0.5553   0.5607   0.5621   0.5655
  0.5726   0.5769   0.5787   0.5807   0.5851   0.5900   0.5946   0.5973
  0.5976   0.6044   0.6087   0.6154   0.6237   0.6262   0.6273   0.6355
  0.6409   0.6467   0.6524   0.6550   0.6609   0.6703   0.6970   0.7106
  0.7201   0.7269   0.7440   0.7561   0.7719   0.7901   0.7963   0.8041
  0.8151   0.8216   0.8314   0.8373   0.8410   0.8446   0.8503   0.8524
  0.8571   0.8645   0.8712   0.8750   0.8766   0.8841   0.8982   0.9073
  0.9178   0.9246   0.9317   0.9439   0.9484   0.9538   0.9728   0.9745
  0.9886   1.0025   1.0046   1.0119   1.0270   1.0430   1.0525   1.0588
  1.0658   1.0804   1.1054   1.1095   1.1299   1.1350   1.1537   1.1558
  1.1661   1.1704   1.1807   1.1982   1.2030   1.2125   1.2200   1.2236
  1.2311   1.2503   1.2652   1.2667   1.2811   1.2959   1.3263   1.3353
  1.3360   1.3521   1.3609   1.3810   1.3868   1.3977   1.4109   1.4206
  1.4357   1.4415   1.4453   1.4525   1.4556   1.4617   1.4696   1.4752
  1.4849   1.4932   1.4964   1.5014   1.5099   1.5143   1.5284   1.5519
  1.5957   1.6193   1.6249   1.6512   1.6759   1.7028   1.7229   1.7363
  1.7606   1.7656   1.7757   1.7777   1.7857   1.7928   1.8106   1.8293
  1.8315   1.8429   1.8553   1.8580   1.8648   1.8799   1.8826   1.8985
  1.9035   1.9209   1.9335   1.9389   1.9566   1.9570   1.9652   1.9678
  1.9767   1.9886   1.9952   2.0078   2.0118   2.0218   2.0298   2.0304
  2.0670   2.0709   2.0845   2.1029   2.1071   2.1178   2.1255   2.1304
  2.1455   2.1486   2.1516   2.1562   2.1757   2.2047   2.2165   2.2285
  2.2330   2.2389   2.2524   2.2598   2.2763   2.2865   2.2930   2.3028
  2.3149   2.3172   2.3381   2.3457   2.3483   2.3748   2.3917   2.4106
  2.4237   2.4639   2.4848   2.5170   2.5232   2.5363   2.5499   2.5753
  2.6045   2.6070   2.6182   2.6294   2.6500   2.6535   2.6702   2.6734
  2.6845   2.6977   2.7034   2.7075   2.7319   2.7629   2.7657   2.7692
  2.7990   2.8271   2.8367   2.8485   2.8781   2.8994   2.9141   2.9424
  2.9774   2.9892   3.0117   3.0525   3.1198   3.1414   3.1961   3.2764
  3.3144   3.3780   3.4070   3.4931   3.5737   4.0582   4.0704   4.0999
  4.1060   4.1128   4.1257   4.1528   4.1611   4.1696   4.1757   4.2325
  4.2828   4.3006   4.3441   4.3753   4.3940   4.4396   4.4702   4.5197
  4.6122   4.7174   4.7829   4.8260   4.8879   5.2832
 --------------------------------------------------------------
 
          Ground-State Mulliken Net Atomic Charges

     Atom                 Charge (a.u.)
  ----------------------------------------
      1 C                    -0.211073
      2 O                    -0.508119
      3 C                     0.382517
      4 C                    -0.192948
      5 C                    -0.192610
      6 C                    -0.268164
      7 C                     0.314385
      8 C                     0.057774
      9 C                     0.061724
     10 C                    -0.197955
     11 C                    -0.145080
     12 C                    -0.140548
     13 C                    -0.178866
     14 C                     0.310433
     15 N                    -0.738889
     16 C                     0.289466
     17 C                    -0.160072
     18 C                    -0.208763
     19 C                     0.203847
     20 C                    -0.299967
     21 C                     0.544827
     22 F                    -0.234697
     23 F                    -0.246689
     24 C                    -0.209167
     25 C                    -0.162803
     26 H                     0.168917
     27 H                     0.147314
     28 H                     0.151381
     29 H                     0.131186
     30 H                     0.132061
     31 H                     0.142378
     32 H                     0.126839
     33 H                     0.120399
     34 H                     0.122794
     35 H                     0.136539
     36 H                     0.155578
     37 H                     0.135510
     38 H                     0.161671
     39 H                     0.144465
     40 H                     0.154406
  ----------------------------------------
  Sum of atomic charges =     0.000000

 -----------------------------------------------------------------
                    Cartesian Multipole Moments
 -----------------------------------------------------------------
    Charge (ESU x 10^10)
                 0.0000
    Dipole Moment (Debye)
         X       1.7097      Y       0.0080      Z      -0.6905
       Tot       1.8439
    Quadrupole Moments (Debye-Ang)
        XX    -141.9683     XY      -1.5409     YY    -131.2094
        XZ      -3.4897     YZ      -2.6827     ZZ    -142.0661
    Octopole Moments (Debye-Ang^2)
       XXX       2.5723    XXY      20.5101    XYY      49.6937
       YYY     -34.1405    XXZ      -5.2911    XYZ      -8.9586
       YYZ      -5.9388    XZZ      49.4649    YZZ     -10.0557
       ZZZ       4.4477
    Hexadecapole Moments (Debye-Ang^3)
      XXXX   -8901.4747   XXXY      25.2133   XXYY   -2176.2033
      XYYY    -119.6078   YYYY   -3920.2205   XXXZ     -49.2692
      XXYZ     -20.8694   XYYZ     -12.2344   YYYZ      17.5249
      XXZZ   -1563.4846   XYZZ      26.5587   YYZZ    -788.5516
      XZZZ      51.1939   YZZZ     -23.1067   ZZZZ    -358.3468
 -----------------------------------------------------------------
Archival summary:
1\1\nia1977.scinet.local\SP\ProcedureUnspecified\6-31G*\2112115\rhickman\MonFeb714:34:382022MonFeb714:34:382022\0\\#,ProcedureUnspecified,6-31G*,\\0,1\N\C,1,1.3821\C,1,1.38486,2,108.281\C,3,1.38632,1,129.636,2,177.008,0\H,4,1.07963,3,121.387,1,0.81075,0\C,4,1.3827,3,117.831,1,-178.365,0\H,6,1.07998,4,119.218,3,-179.765,0\C,2,1.38883,1,128.739,3,177.044,0\H,8,1.07789,2,120.439,1,0.653582,0\C,8,1.38733,2,117.623,1,-178.36,0\O,10,1.36313,8,124.313,2,-179.663,0\C,6,1.39233,4,121.447,3,0.49734,0\H,12,1.07983,6,119.247,4,-179.819,0\C,12,1.3809,6,120.955,4,0.845947,0\H,14,1.07941,12,120.987,6,178.829,0\C,14,1.38841,12,118.635,6,-0.837772,0\C,1,1.39605,2,125.927,3,-179.983,0\C,17,1.39407,1,120.462,2,131.065,0\H,18,1.07938,17,119.526,1,-1.1519,0\C,18,1.378,17,120.148,1,179.948,0\H,20,1.08015,18,119.404,17,179.771,0\C,17,1.39416,1,120.496,2,-48.9409,0\H,22,1.07948,17,119.359,1,-1.73344,0\C,22,1.37893,17,120.634,1,179.616,0\H,24,1.07751,22,118.913,17,179.656,0\C,24,1.39709,22,120.709,17,0.428609,0\C,10,1.40456,8,120.766,2,0.458768,0\H,27,1.07809,10,117.484,8,-179.839,0\C,27,1.37476,10,121.304,8,0.868756,0\H,29,1.07894,27,120.603,10,178.899,0\C,29,1.39043,27,118.905,10,-0.873644,0\C,11,1.40554,10,118.661,8,0.106442,0\H,32,1.08886,11,105.723,10,179.739,0\H,32,1.09515,11,111.627,10,-61.5879,0\H,32,1.09515,11,111.605,10,61.0896,0\C,26,1.45242,24,123.608,22,179.85,0\H,36,1.0806,26,116.469,24,-178.223,0\C,36,1.32536,26,128.544,24,1.94646,0\F,38,1.32823,36,128.076,26,0.122175,0\F,38,1.33199,36,123.076,26,179.914,0\\\@

 Total job time:  124.07s(wall), 123.67s(cpu) 
 Mon Feb  7 14:34:38 2022

        *************************************************************
        *                                                           *
        *  Thank you very much for using Q-Chem.  Have a nice day.  *
        *                                                           *
        *************************************************************


