40
 energy: -69.086498364216 gnorm: 0.000064656531 xtb: 6.4.1 (23d549d)
C         0.89364891730000    4.65046077650000   -0.32600976430000
O         2.21543683120000    4.19149374910000   -0.19272452250000
C         2.43512254810000    2.84953576440000   -0.09781034970000
C         3.78346667580000    2.47830169140000    0.03237973350000
C         4.15564958510000    1.15766732630000    0.11819588720000
C         1.43418968330000    1.88931232110000   -0.12569858630000
C         1.81500052880000    0.55866128190000   -0.01082796850000
C         3.16897517580000    0.17832393510000    0.09279349130000
C         3.19158446640000   -1.25654653300000    0.13442849470000
C         4.21012339960000   -2.19286165670000    0.25093979290000
C         3.87672568920000   -3.53244562330000    0.28614988060000
C         2.54726428850000   -3.94144234820000    0.22427671630000
C         1.51604933120000   -3.02764682460000    0.10834180420000
C         1.84699427140000   -1.68292034010000    0.04446738910000
N         1.02270081000000   -0.57338800900000   -0.04105374970000
C        -0.36958111920000   -0.59636463070000   -0.14098859250000
C        -0.99761309900000   -1.41854568420000   -1.07534937220000
C        -2.37239421160000   -1.43692765350000   -1.16770072300000
C        -3.16486295080000   -0.63371556770000   -0.34264620270000
C        -4.60701663080000   -0.70116626420000   -0.50125291230000
C        -5.54144053480000   -0.01425909400000    0.14030304230000
F        -5.37876752420000    0.90568431980000    1.08446562320000
F        -6.84391624120000   -0.16344356400000   -0.09526843420000
C        -2.52707499830000    0.18763559630000    0.59034507540000
C        -1.15197095710000    0.20222185000000    0.69195613300000
H         0.96204239800000    5.73592069370000   -0.37807883970000
H         0.28007007220000    4.36872129770000    0.53625789900000
H         0.42609438130000    4.27403563140000   -1.24200319900000
H         4.51734537230000    3.26783135640000    0.05077773540000
H         5.19620070630000    0.88445263700000    0.20020013660000
H         0.39587484170000    2.15154921970000   -0.24806491840000
H         5.23931722640000   -1.87439516860000    0.31772191560000
H         4.65415890860000   -4.27674352090000    0.37362098820000
H         2.31507775760000   -4.99508573820000    0.27200438450000
H         0.48771966220000   -3.35547321450000    0.08250576530000
H        -0.39892966010000   -2.02612094120000   -1.73677418700000
H        -2.84631509270000   -2.07572340290000   -1.89849321890000
H        -4.97836618260000   -1.39828696590000   -1.23868876500000
H        -3.10497224630000    0.81173205400000    1.25183050430000
H        -0.67239441330000    0.81959322660000    1.43636383090000
