
Running Job 1 of 1 fragments/A008/conf-1/spe_input.inp
qchem fragments/A008/conf-1/spe_input.inp_355386.0 /gpfs/fs0/scratch/a/aspuru/rhickman/descriptor_computation/qchem355386/ 0
/scinet/niagara/software/commercial/qc52/exe/qcprog.exe_s fragments/A008/conf-1/spe_input.inp_355386.0 /gpfs/fs0/scratch/a/aspuru/rhickman/descriptor_computation/qchem355386/
                  Welcome to Q-Chem
     A Quantum Leap Into The Future Of Chemistry


 Q-Chem 5.2, Q-Chem, Inc., Pleasanton, CA (2019)

 License issued to: SRG Alan Aspuru-Guzik, University of Toronto

 Yihan Shao,  Zhengting Gan,  E. Epifanovsky,  A. T. B. Gilbert,  M. Wormit,  
 J. Kussmann,  A. W. Lange,  A. Behn,  Jia Deng,  Xintian Feng,  D. Ghosh,  
 M. Goldey,  P. R. Horn,  L. D. Jacobson,  I. Kaliman,  T. Kus,  A. Landau,  
 Jie Liu,  E. I. Proynov,  R. M. Richard,  R. P. Steele,  E. J. Sundstrom,  
 H. L. Woodcock III,  P. M. Zimmerman,  D. Zuev,  B. Albrecht,  E. Alguire,  
 S. A. Baeppler,  D. Barton,  Z. Benda,  Y. A. Bernard,  E. J. Berquist,  
 K. B. Bravaya,  H. Burton,  D. Casanova,  Chun-Min Chang,  Yunqing Chen,  
 A. Chien,  K. D. Closser,  M. P. Coons,  S. Coriani,  S. Dasgupta,  
 A. L. Dempwolff,  M. Diedenhofen,  Hainam Do,  R. G. Edgar,  Po-Tung Fang,  
 S. Faraji,  S. Fatehi,  Qingguo Feng,  K. D. Fenk,  J. Fosso-Tande,  
 J. Gayvert,  Qinghui Ge,  A. Ghysels,  G. Gidofalvi,  J. Gomes,  
 J. Gonthier,  A. Gunina,  D. Hait,  M. W. D. Hanson-Heine,  
 P. H. P. Harbach,  A. W. Hauser,  M. F. Herbst,  J. E. Herr,  
 E. G. Hohenstein,  Z. C. Holden,  Kerwin Hui,  B. C. Huynh,  T.-C. Jagau,  
 Hyunjun Ji,  B. Kaduk,  K. Khistyaev,  Jaehoon Kim,  P. Klunzinger,  K. Koh,  
 D. Kosenkov,  L. Koulias,  T. Kowalczyk,  C. M. Krauter,  A. Kunitsa,  
 Ka Un Lao,  A. Laurent,  K. V. Lawler,  Joonho Lee,  D. Lefrancois,  
 S. Lehtola,  D. S. Levine,  Yi-Pei Li,  You-Sheng Lin,  Fenglai Liu,  
 E. Livshits,  A. Luenser,  P. Manohar,  E. Mansoor,  S. F. Manzer,  
 Shan-Ping Mao,  Yuezhi Mao,  N. Mardirossian,  A. V. Marenich,  
 T. Markovich,  L. A. Martinez-Martinez,  S. A. Maurer,  N. J. Mayhall,  
 S. C. McKenzie,  J.-M. Mewes,  P. Morgante,  A. F. Morrison,  
 J. W. Mullinax,  K. Nanda,  T. S. Nguyen-Beck,  R. Olivares-Amaya,  
 J. A. Parkhill,  Zheng Pei,  T. M. Perrine,  F. Plasser,  P. Pokhilko,  
 S. Prager,  A. Prociuk,  E. Ramos,  D. R. Rehn,  F. Rob,  M. Scheurer,  
 M. Schneider,  N. Sergueev,  S. M. Sharada,  S. Sharma,  D. W. Small,  
 T. Stauch,  T. Stein,  Yu-Chuan Su,  A. J. W. Thom,  A. Tkatchenko,  
 T. Tsuchimochi,  N. M. Tubman,  L. Vogt,  M. L. Vidal,  O. Vydrov,  
 M. A. Watson,  J. Wenzel,  M. de Wergifosse,  T. A. Wesolowski,  A. White,  
 J. Witte,  A. Yamada,  Jun Yang,  K. Yao,  S. Yeganeh,  S. R. Yost,  
 Zhi-Qiang You,  A. Zech,  Igor Ying Zhang,  Xing Zhang,  Yan Zhao,  
 Ying Zhu,  B. R. Brooks,  G. K. L. Chan,  C. J. Cramer,  M. S. Gordon,  
 W. J. Hehre,  A. Klamt,  M. W. Schmidt,  C. D. Sherrill,  D. G. Truhlar,  
 A. Aspuru-Guzik,  R. Baer,  A. T. Bell,  N. A. Besley,  Jeng-Da Chai,  
 A. E. DePrince, III,  R. A. DiStasio Jr.,  A. Dreuw,  B. D. Dunietz,  
 T. R. Furlani,  Chao-Ping Hsu,  Yousung Jung,  Jing Kong,  D. S. Lambrecht,  
 WanZhen Liang,  C. Ochsenfeld,  V. A. Rassolov,  L. V. Slipchenko,  
 J. E. Subotnik,  T. Van Voorhis,  J. M. Herbert,  A. I. Krylov,  
 P. M. W. Gill,  M. Head-Gordon

 Contributors to earlier versions of Q-Chem not listed above: 
 R. D. Adamson,  B. Austin,  J. Baker,  G. J. O. Beran,  K. Brandhorst,  
 S. T. Brown,  E. F. C. Byrd,  A. K. Chakraborty,  C.-L. Cheng,  
 Siu Hung Chien,  D. M. Chipman,  D. L. Crittenden,  H. Dachsel,  
 R. J. Doerksen,  A. D. Dutoi,  L. Fusti-Molnar,  W. A. Goddard III,  
 A. Golubeva-Zadorozhnaya,  S. R. Gwaltney,  G. Hawkins,  A. Heyden,  
 S. Hirata,  G. Kedziora,  F. J. Keil,  C. Kelley,  Jihan Kim,  R. A. King,  
 R. Z. Khaliullin,  P. P. Korambath,  W. Kurlancheek,  A. M. Lee,  M. S. Lee,  
 S. V. Levchenko,  Ching Yeh Lin,  D. Liotard,  R. C. Lochan,  I. Lotan,  
 P. E. Maslen,  N. Nair,  D. P. O'Neill,  D. Neuhauser,  E. Neuscamman,  
 C. M. Oana,  R. Olson,  B. Peters,  R. Peverati,  P. A. Pieniazek,  
 Y. M. Rhee,  J. Ritchie,  M. A. Rohrdanz,  E. Rosta,  N. J. Russ,  
 H. F. Schaefer III,  N. E. Schultz,  N. Shenvi,  A. C. Simmonett,  A. Sodt,  
 D. Stuck,  K. S. Thanthiriwatte,  V. Vanovschi,  Tao Wang,  A. Warshel,  
 C. F. Williams,  Q. Wu,  X. Xu,  W. Zhang

 Please cite Q-Chem as follows:
 Y. Shao et al., Mol. Phys. 113, 184-215 (2015)
 DOI: 10.1080/00268976.2014.952696

 Q-Chem 5.2.1 for Intel X86 EM64T Linux

 Parts of Q-Chem use Armadillo 8.300.2 (Tropical Shenanigans).
 http://arma.sourceforge.net/

 Q-Chem begins on Tue Feb  8 16:22:10 2022  

Host: 
0

     Scratch files written to /gpfs/fs0/scratch/a/aspuru/rhickman/descriptor_computation/qchem355386//
 Jul1719 |scratch|qcdevops|jenkins|workspace|build_RNUM -1
Processing $rem in /scinet/niagara/software/commercial/qc52/config/preferences:
	 MEM_TOTAL  4000 
NAlpha2: 158
NElect   158
Mult     1

Checking the input file for inconsistencies... 	...done.

--------------------------------------------------------------
User input:
--------------------------------------------------------------
$molecule
0 1
F        -6.21220537660000   -1.26605005590000   -0.24640574210000
C        -4.88095756170000   -1.36601159480000   -0.22977478200000
F        -4.54889005370000   -2.64683445420000   -0.36427594900000
C        -4.08087555060000   -0.31812899760000   -0.09875375980000
C        -2.62922357700000   -0.27386841150000   -0.06548782360000
C        -2.02119240510000    0.97427320260000    0.05516560380000
C        -0.64033378330000    1.05970110870000    0.08372399520000
C         0.27873160280000    2.15630878810000    0.21378649450000
C         0.11725966940000    3.53043346150000    0.33135634710000
C         1.24426679920000    4.32296693370000    0.41718218740000
C         2.51926206820000    3.76307282520000    0.37246979980000
C         2.70523805810000    2.39885872110000    0.25602429100000
C         1.57606922400000    1.59528956510000    0.19268870670000
N         1.47885663280000    0.22384057260000    0.05258659550000
C         2.55664893380000   -0.67321364770000   -0.00950171690000
C         3.55093090450000   -0.63827251360000    0.96332182750000
C         4.61303221780000   -1.52088903600000    0.89510736700000
C         4.68692260240000   -2.44710136250000   -0.13196536900000
C         3.69489532960000   -2.48598283570000   -1.09765572340000
C         2.63407678440000   -1.60085084660000   -1.04378960090000
C         0.14646796770000   -0.11262015920000   -0.01640281330000
C        -0.45333401340000   -1.36186005570000   -0.11091225480000
C        -1.82954822310000   -1.42737734090000   -0.13820028540000
H        -4.59036793760000    0.63073856250000   -0.00815781970000
H        -2.62185579090000    1.86844531000000    0.12911255650000
H        -0.87048342860000    3.96544099810000    0.35038042190000
H         1.14153157170000    5.39364754320000    0.51137228910000
H         3.38209855240000    4.41028882160000    0.42644224710000
H         3.69710226300000    1.97586512590000    0.20484931660000
H         3.47773400030000    0.07093326190000    1.77426708920000
H         5.38214752370000   -1.49036711700000    1.65251347740000
H         5.51560792460000   -3.13715794030000   -0.17954911930000
H         3.75072811300000   -3.20406636620000   -1.90219376050000
H         1.86953590050000   -1.61341661050000   -1.80620156040000
H         0.13881294410000   -2.26332296750000   -0.15095504220000
H        -2.29662383480000   -2.39508133390000   -0.21251778100000
$end

$rem
BASIS = 6-31G*
GUI = 2
METHOD = B3LYP
PRINT_ORBITALS false
MOLDEN_FORMAT false
--------------------------------------------------------------
 ----------------------------------------------------------------
             Standard Nuclear Orientation (Angstroms)
    I     Atom           X                Y                Z
 ----------------------------------------------------------------
    1      F       6.4320956383     0.2644978078     0.0757327971
    2      C       5.1343690942     0.5780739538     0.0676420537
    3      F       5.0168426684     1.9028309956     0.0761808126
    4      C       4.1725989551    -0.3330324553     0.0521830390
    5      C       2.7324212659    -0.1430166773     0.0402959911
    6      C       1.9286692731    -1.2806246958    -0.0038330793
    7      C       0.5519750599    -1.1419973659    -0.0233150954
    8      C      -0.5348424602    -2.0813203793    -0.0487275852
    9      C      -0.5996183962    -3.4677676602    -0.0897457419
   10      C      -1.8410945092    -4.0701183712    -0.1288754203
   11      C      -3.0073513100    -3.3080389682    -0.1420513223
   12      C      -2.9683694305    -1.9274291474    -0.1017563736
   13      C      -1.7240420068    -1.3171337232    -0.0389407825
   14      N      -1.4035416879     0.0269589837    -0.0135327273
   15      C      -2.3208816676     1.0892523911     0.0012170227
   16      C      -3.3518093188     1.1084483188     0.9355739476
   17      C      -4.2556895830     2.1547131671     0.9429680698
   18      C      -4.1338959630     3.1896926877     0.0307229416
   19      C      -3.1048936568     3.1739283199    -0.8961500152
   20      C      -2.2020175784     2.1270145957    -0.9181187195
   21      C      -0.0328500310     0.1468375637    -0.0058890943
   22      C       0.7617566686     1.2839378382     0.0640961091
   23      C       2.1306446224     1.1264107032     0.0823628533
   24      H       4.5199314778    -1.3564748039     0.0440811080
   25      H       2.3753818836    -2.2634829379    -0.0195153015
   26      H       0.3044042677    -4.0576348686    -0.0951862964
   27      H      -1.9144457320    -5.1469197583    -0.1589027500
   28      H      -3.9637199010    -3.8075350806    -0.1884315058
   29      H      -3.8768863003    -1.3450633337    -0.1297602483
   30      H      -3.4298074219     0.3104987977     1.6588689732
   31      H      -5.0539327810     2.1655898400     1.6701705534
   32      H      -4.8391675145     4.0067732683     0.0422563922
   33      H      -3.0086541156     3.9770256062    -1.6115627696
   34      H      -1.4109115428     2.0998454547    -1.6525339534
   35      H       0.3230407340     2.2687535479     0.1145259829
   36      H       2.7486398356     2.0069715795     0.1355436296
 ----------------------------------------------------------------
 Molecular Point Group                 C1    NOp =  1
 Largest Abelian Subgroup              C1    NOp =  1
 Nuclear Repulsion Energy =        1731.26565871 hartrees
 There are       79 alpha and       79 beta electrons
 Requested basis set is 6-31G(d)
 There are 118 shells and 371 basis functions

 Total QAlloc Memory Limit   4000 MB
 Mega-Array Size       188 MB
 MEM_STATIC part       192 MB
 A cutoff of  1.0D-08 yielded   3482 shell pairs
 There are     37221 function pairs
 Smallest overlap matrix eigenvalue = 2.53E-04

 Scale SEOQF with 1.000000e-02/1.000000e-01/1.000000e-01

 Standard Electronic Orientation quadrupole field applied
 Nucleus-field energy     =     0.0000000507 hartrees
 Guess from superposition of atomic densities
 Warning:  Energy on first SCF cycle will be non-variational
 SAD guess density has 158.000000 electrons

 -----------------------------------------------------------------------
  General SCF calculation program by
  Eric Jon Sundstrom, Paul Horn, Yuezhi Mao, Dmitri Zuev, Alec White,
  David Stuck, Shaama M.S., Shane Yost, Joonho Lee, David Small,
  Daniel Levine, Susi Lehtola, Hugh Burton, Evgeny Epifanovsky,
  Bang C. Huynh
 -----------------------------------------------------------------------
 Exchange:     0.2000 Hartree-Fock + 0.0800 Slater + 0.7200 B88
 Correlation:  0.1900 VWN1RPA + 0.8100 LYP
 Using SG-1 standard quadrature grid
 A restricted SCF calculation will be
 performed using DIIS
 SCF converges when DIIS error is below 1.0e-05
 ---------------------------------------
  Cycle       Energy         DIIS error
 ---------------------------------------
    1   -1030.5163089432      4.33e-02  
    2   -1024.0601442233      4.23e-03  
    3   -1023.8269873438      5.65e-03  
    4   -1024.3457351731      1.48e-03  
    5   -1024.3819494311      4.87e-04  
    6   -1024.3857293323      2.22e-04  
    7   -1024.3865852195      5.25e-05  
    8   -1024.3866255104      2.25e-05  
    9   -1024.3866348607      5.37e-06  Convergence criterion met
 ---------------------------------------
 SCF time:   CPU 103.76s  wall 104.00s 
 SCF   energy in the final basis set =    -1024.3866348607
 Total energy in the final basis set =    -1024.3866348607
 
 --------------------------------------------------------------
 
                    Orbital Energies (a.u.)
 --------------------------------------------------------------
 
 Alpha MOs
 -- Occupied --
-24.7366 -24.7254 -14.3850 -10.3467 -10.2390 -10.2228 -10.2224 -10.1996
-10.1996 -10.1988 -10.1988 -10.1972 -10.1964 -10.1960 -10.1883 -10.1878
-10.1867 -10.1863 -10.1863 -10.1855 -10.1849 -10.1847 -10.1791  -1.2764
 -1.2157  -1.0047  -0.8791  -0.8571  -0.8481  -0.8068  -0.7835  -0.7630
 -0.7596  -0.7480  -0.7207  -0.7161  -0.6560  -0.6384  -0.6247  -0.6209
 -0.6012  -0.5838  -0.5812  -0.5641  -0.5455  -0.5320  -0.5191  -0.5105
 -0.4996  -0.4841  -0.4756  -0.4652  -0.4542  -0.4517  -0.4429  -0.4374
 -0.4368  -0.4330  -0.4303  -0.4235  -0.4193  -0.4118  -0.4013  -0.3812
 -0.3789  -0.3693  -0.3659  -0.3618  -0.3594  -0.3431  -0.3352  -0.3351
 -0.2934  -0.2766  -0.2649  -0.2619  -0.2380  -0.2129  -0.1912
 -- Virtual --
 -0.0268  -0.0203  -0.0118  -0.0090   0.0229   0.0424   0.0845   0.0882
  0.0943   0.1040   0.1249   0.1331   0.1369   0.1460   0.1498   0.1584
  0.1624   0.1681   0.1785   0.1866   0.1898   0.1948   0.2011   0.2042
  0.2070   0.2165   0.2365   0.2651   0.2668   0.2810   0.2836   0.2982
  0.2992   0.3189   0.3290   0.3430   0.3502   0.3641   0.3814   0.3911
  0.4139   0.4343   0.4553   0.4585   0.4719   0.4944   0.5021   0.5132
  0.5185   0.5242   0.5341   0.5347   0.5415   0.5473   0.5505   0.5541
  0.5597   0.5627   0.5724   0.5765   0.5797   0.5864   0.5886   0.5941
  0.5960   0.5985   0.6011   0.6033   0.6062   0.6096   0.6126   0.6184
  0.6235   0.6258   0.6347   0.6368   0.6440   0.6503   0.6590   0.6599
  0.6869   0.6991   0.7137   0.7270   0.7711   0.7803   0.7867   0.7913
  0.7986   0.8150   0.8255   0.8313   0.8353   0.8377   0.8466   0.8480
  0.8511   0.8544   0.8610   0.8700   0.8845   0.8916   0.9009   0.9086
  0.9152   0.9235   0.9368   0.9564   0.9597   0.9637   0.9892   0.9991
  1.0026   1.0124   1.0239   1.0293   1.0477   1.0628   1.0753   1.1041
  1.1247   1.1320   1.1400   1.1528   1.1591   1.1674   1.1702   1.1864
  1.1970   1.1992   1.2076   1.2249   1.2267   1.2315   1.2566   1.2770
  1.2809   1.3080   1.3284   1.3333   1.3452   1.3585   1.3687   1.3974
  1.4109   1.4222   1.4251   1.4313   1.4348   1.4509   1.4536   1.4593
  1.4623   1.4763   1.4815   1.4878   1.4914   1.4995   1.5001   1.5052
  1.5278   1.5521   1.6147   1.6238   1.6421   1.6553   1.6671   1.7126
  1.7238   1.7565   1.7710   1.7828   1.7853   1.7904   1.7959   1.8241
  1.8269   1.8364   1.8440   1.8529   1.8671   1.8744   1.8847   1.8916
  1.8983   1.9195   1.9251   1.9353   1.9392   1.9613   1.9708   1.9777
  1.9802   1.9953   2.0050   2.0097   2.0268   2.0463   2.0475   2.0788
  2.0805   2.0916   2.0962   2.1203   2.1290   2.1422   2.1474   2.1537
  2.1641   2.1791   2.2010   2.2107   2.2144   2.2370   2.2431   2.2452
  2.2693   2.2771   2.2863   2.3069   2.3095   2.3112   2.3314   2.3485
  2.3663   2.4031   2.4047   2.4239   2.4712   2.4986   2.5233   2.5307
  2.5518   2.5671   2.5930   2.5982   2.6043   2.6305   2.6393   2.6520
  2.6710   2.6806   2.6864   2.7021   2.7266   2.7367   2.7377   2.7482
  2.7532   2.7782   2.7893   2.8238   2.8288   2.8565   2.9003   2.9079
  2.9287   2.9430   2.9995   3.0048   3.0593   3.1565   3.1821   3.2361
  3.3170   3.3818   3.4073   3.4795   3.5712   4.0843   4.0903   4.0970
  4.1071   4.1190   4.1275   4.1501   4.1626   4.1770   4.1943   4.2814
  4.3036   4.3400   4.3860   4.3943   4.4469   4.4905   4.5398   4.7203
  4.7638   4.8035   4.8919   5.3028
 --------------------------------------------------------------
 
          Ground-State Mulliken Net Atomic Charges

     Atom                 Charge (a.u.)
  ----------------------------------------
      1 F                    -0.254169
      2 C                     0.530866
      3 F                    -0.238952
      4 C                    -0.290974
      5 C                     0.186099
      6 C                    -0.276820
      7 C                     0.066161
      8 C                     0.062246
      9 C                    -0.194056
     10 C                    -0.146046
     11 C                    -0.138630
     12 C                    -0.176181
     13 C                     0.308640
     14 N                    -0.731349
     15 C                     0.275268
     16 C                    -0.153189
     17 C                    -0.141353
     18 C                    -0.120210
     19 C                    -0.141199
     20 C                    -0.153970
     21 C                     0.319162
     22 C                    -0.174705
     23 C                    -0.211945
     24 H                     0.155227
     25 H                     0.128425
     26 H                     0.128957
     27 H                     0.122770
     28 H                     0.126000
     29 H                     0.139939
     30 H                     0.152666
     31 H                     0.137666
     32 H                     0.133783
     33 H                     0.137964
     34 H                     0.152771
     35 H                     0.142172
     36 H                     0.136965
  ----------------------------------------
  Sum of atomic charges =     0.000000

 -----------------------------------------------------------------
                    Cartesian Multipole Moments
 -----------------------------------------------------------------
    Charge (ESU x 10^10)
                 0.0000
    Dipole Moment (Debye)
         X      -2.6308      Y       0.5512      Z      -0.0069
       Tot       2.6879
    Quadrupole Moments (Debye-Ang)
        XX    -125.9438     XY      -8.5600     YY    -117.1868
        XZ      -2.6140     YZ      -1.9523     ZZ    -130.5400
    Octopole Moments (Debye-Ang^2)
       XXX     -26.6193    XXY       3.2537    XYY       8.0818
       YYY      12.7258    XXZ      16.9353    XYZ       0.8596
       YYZ     -11.1340    XZZ      25.9114    YZZ      18.7519
       ZZZ       1.9246
    Hexadecapole Moments (Debye-Ang^3)
      XXXX   -7603.1486   XXXY     -84.9942   XXYY   -1637.3182
      XYYY       9.7388   YYYY   -3159.0015   XXXZ     -93.4680
      XXYZ      20.1536   XYYZ      26.2016   YYYZ     -33.6896
      XXZZ   -1269.5535   XYZZ       9.5892   YYZZ    -637.5702
      XZZZ      -5.4357   YZZZ      -9.9944   ZZZZ    -280.7444
 -----------------------------------------------------------------
Archival summary:
1\1\nia2015.scinet.local\SP\ProcedureUnspecified\6-31G*\212013\rhickman\TueFeb816:23:542022TueFeb816:23:542022\0\\#,ProcedureUnspecified,6-31G*,\\0,1\N\C,1,1.37595\C,1,1.38201,2,108.413\C,3,1.38736,1,129.543,2,-177.489,0\H,4,1.07951,3,121.245,1,-0.611848,0\C,4,1.38175,3,117.785,1,178.701,0\H,6,1.07995,4,119.234,3,179.833,0\C,2,1.38899,1,129.903,3,-177.505,0\H,8,1.07929,2,121.118,1,-0.615857,0\C,8,1.37804,2,118.383,1,178.695,0\H,10,1.0771,8,118.499,2,179.936,0\C,6,1.39323,4,121.51,3,-0.392377,0\H,12,1.07971,6,119.234,4,179.837,0\C,12,1.38044,6,120.958,4,-0.723628,0\H,14,1.07946,12,120.97,6,-179.03,0\C,14,1.38857,12,118.586,6,0.700473,0\C,1,1.40364,2,125.807,3,-179.968,0\C,17,1.39148,1,120.113,2,-128.802,0\H,18,1.0798,17,119.545,1,1.0894,0\C,18,1.38265,17,119.892,1,-179.772,0\H,20,1.07988,18,119.634,17,-179.977,0\C,20,1.38499,18,120.296,17,-0.491338,0\H,22,1.07943,20,120.077,18,-179.751,0\C,22,1.38499,20,119.843,18,0.235833,0\H,24,1.07983,22,120.075,20,179.765,0\C,24,1.38264,22,120.293,20,0.25636,0\H,26,1.07979,24,120.55,22,178.679,0\C,10,1.40547,8,121.882,2,-0.379421,0\C,28,1.3936,10,119.426,8,-0.8461,0\H,29,1.07973,28,120.326,10,-178.957,0\C,29,1.38379,28,119.502,10,0.846245,0\C,28,1.45271,10,122.845,8,179.704,0\H,32,1.08081,28,116.256,10,178.366,0\C,32,1.3249,28,129.036,10,-1.86406,0\F,34,1.32999,32,128.382,28,0.00125452,0\F,34,1.3351,32,122.967,28,-179.919,0\\\@

 Total job time:  104.40s(wall), 104.12s(cpu) 
 Tue Feb  8 16:23:54 2022

        *************************************************************
        *                                                           *
        *  Thank you very much for using Q-Chem.  Have a nice day.  *
        *                                                           *
        *************************************************************


