
Running Job 1 of 1 fragments/C048/conf-0/spe_input.inp
qchem fragments/C048/conf-0/spe_input.inp_25232.0 /gpfs/fs0/scratch/a/aspuru/rhickman/descriptor_computation/qchem25232/ 0
/scinet/niagara/software/commercial/qc52/exe/qcprog.exe_s fragments/C048/conf-0/spe_input.inp_25232.0 /gpfs/fs0/scratch/a/aspuru/rhickman/descriptor_computation/qchem25232/
                  Welcome to Q-Chem
     A Quantum Leap Into The Future Of Chemistry


 Q-Chem 5.2, Q-Chem, Inc., Pleasanton, CA (2019)

 License issued to: SRG Alan Aspuru-Guzik, University of Toronto

 Yihan Shao,  Zhengting Gan,  E. Epifanovsky,  A. T. B. Gilbert,  M. Wormit,  
 J. Kussmann,  A. W. Lange,  A. Behn,  Jia Deng,  Xintian Feng,  D. Ghosh,  
 M. Goldey,  P. R. Horn,  L. D. Jacobson,  I. Kaliman,  T. Kus,  A. Landau,  
 Jie Liu,  E. I. Proynov,  R. M. Richard,  R. P. Steele,  E. J. Sundstrom,  
 H. L. Woodcock III,  P. M. Zimmerman,  D. Zuev,  B. Albrecht,  E. Alguire,  
 S. A. Baeppler,  D. Barton,  Z. Benda,  Y. A. Bernard,  E. J. Berquist,  
 K. B. Bravaya,  H. Burton,  D. Casanova,  Chun-Min Chang,  Yunqing Chen,  
 A. Chien,  K. D. Closser,  M. P. Coons,  S. Coriani,  S. Dasgupta,  
 A. L. Dempwolff,  M. Diedenhofen,  Hainam Do,  R. G. Edgar,  Po-Tung Fang,  
 S. Faraji,  S. Fatehi,  Qingguo Feng,  K. D. Fenk,  J. Fosso-Tande,  
 J. Gayvert,  Qinghui Ge,  A. Ghysels,  G. Gidofalvi,  J. Gomes,  
 J. Gonthier,  A. Gunina,  D. Hait,  M. W. D. Hanson-Heine,  
 P. H. P. Harbach,  A. W. Hauser,  M. F. Herbst,  J. E. Herr,  
 E. G. Hohenstein,  Z. C. Holden,  Kerwin Hui,  B. C. Huynh,  T.-C. Jagau,  
 Hyunjun Ji,  B. Kaduk,  K. Khistyaev,  Jaehoon Kim,  P. Klunzinger,  K. Koh,  
 D. Kosenkov,  L. Koulias,  T. Kowalczyk,  C. M. Krauter,  A. Kunitsa,  
 Ka Un Lao,  A. Laurent,  K. V. Lawler,  Joonho Lee,  D. Lefrancois,  
 S. Lehtola,  D. S. Levine,  Yi-Pei Li,  You-Sheng Lin,  Fenglai Liu,  
 E. Livshits,  A. Luenser,  P. Manohar,  E. Mansoor,  S. F. Manzer,  
 Shan-Ping Mao,  Yuezhi Mao,  N. Mardirossian,  A. V. Marenich,  
 T. Markovich,  L. A. Martinez-Martinez,  S. A. Maurer,  N. J. Mayhall,  
 S. C. McKenzie,  J.-M. Mewes,  P. Morgante,  A. F. Morrison,  
 J. W. Mullinax,  K. Nanda,  T. S. Nguyen-Beck,  R. Olivares-Amaya,  
 J. A. Parkhill,  Zheng Pei,  T. M. Perrine,  F. Plasser,  P. Pokhilko,  
 S. Prager,  A. Prociuk,  E. Ramos,  D. R. Rehn,  F. Rob,  M. Scheurer,  
 M. Schneider,  N. Sergueev,  S. M. Sharada,  S. Sharma,  D. W. Small,  
 T. Stauch,  T. Stein,  Yu-Chuan Su,  A. J. W. Thom,  A. Tkatchenko,  
 T. Tsuchimochi,  N. M. Tubman,  L. Vogt,  M. L. Vidal,  O. Vydrov,  
 M. A. Watson,  J. Wenzel,  M. de Wergifosse,  T. A. Wesolowski,  A. White,  
 J. Witte,  A. Yamada,  Jun Yang,  K. Yao,  S. Yeganeh,  S. R. Yost,  
 Zhi-Qiang You,  A. Zech,  Igor Ying Zhang,  Xing Zhang,  Yan Zhao,  
 Ying Zhu,  B. R. Brooks,  G. K. L. Chan,  C. J. Cramer,  M. S. Gordon,  
 W. J. Hehre,  A. Klamt,  M. W. Schmidt,  C. D. Sherrill,  D. G. Truhlar,  
 A. Aspuru-Guzik,  R. Baer,  A. T. Bell,  N. A. Besley,  Jeng-Da Chai,  
 A. E. DePrince, III,  R. A. DiStasio Jr.,  A. Dreuw,  B. D. Dunietz,  
 T. R. Furlani,  Chao-Ping Hsu,  Yousung Jung,  Jing Kong,  D. S. Lambrecht,  
 WanZhen Liang,  C. Ochsenfeld,  V. A. Rassolov,  L. V. Slipchenko,  
 J. E. Subotnik,  T. Van Voorhis,  J. M. Herbert,  A. I. Krylov,  
 P. M. W. Gill,  M. Head-Gordon

 Contributors to earlier versions of Q-Chem not listed above: 
 R. D. Adamson,  B. Austin,  J. Baker,  G. J. O. Beran,  K. Brandhorst,  
 S. T. Brown,  E. F. C. Byrd,  A. K. Chakraborty,  C.-L. Cheng,  
 Siu Hung Chien,  D. M. Chipman,  D. L. Crittenden,  H. Dachsel,  
 R. J. Doerksen,  A. D. Dutoi,  L. Fusti-Molnar,  W. A. Goddard III,  
 A. Golubeva-Zadorozhnaya,  S. R. Gwaltney,  G. Hawkins,  A. Heyden,  
 S. Hirata,  G. Kedziora,  F. J. Keil,  C. Kelley,  Jihan Kim,  R. A. King,  
 R. Z. Khaliullin,  P. P. Korambath,  W. Kurlancheek,  A. M. Lee,  M. S. Lee,  
 S. V. Levchenko,  Ching Yeh Lin,  D. Liotard,  R. C. Lochan,  I. Lotan,  
 P. E. Maslen,  N. Nair,  D. P. O'Neill,  D. Neuhauser,  E. Neuscamman,  
 C. M. Oana,  R. Olson,  B. Peters,  R. Peverati,  P. A. Pieniazek,  
 Y. M. Rhee,  J. Ritchie,  M. A. Rohrdanz,  E. Rosta,  N. J. Russ,  
 H. F. Schaefer III,  N. E. Schultz,  N. Shenvi,  A. C. Simmonett,  A. Sodt,  
 D. Stuck,  K. S. Thanthiriwatte,  V. Vanovschi,  Tao Wang,  A. Warshel,  
 C. F. Williams,  Q. Wu,  X. Xu,  W. Zhang

 Please cite Q-Chem as follows:
 Y. Shao et al., Mol. Phys. 113, 184-215 (2015)
 DOI: 10.1080/00268976.2014.952696

 Q-Chem 5.2.1 for Intel X86 EM64T Linux

 Parts of Q-Chem use Armadillo 8.300.2 (Tropical Shenanigans).
 http://arma.sourceforge.net/

 Q-Chem begins on Mon Feb  7 12:24:33 2022  

Host: 
0

     Scratch files written to /gpfs/fs0/scratch/a/aspuru/rhickman/descriptor_computation/qchem25232//
 Jul1719 |scratch|qcdevops|jenkins|workspace|build_RNUM -1
Processing $rem in /scinet/niagara/software/commercial/qc52/config/preferences:
	 MEM_TOTAL  4000 
NAlpha2: 110
NElect   110
Mult     1

Checking the input file for inconsistencies... 	...done.

--------------------------------------------------------------
User input:
--------------------------------------------------------------
$molecule
0 1
C        -4.08195883960000    1.73216343940000    0.32636680400000
C        -3.41612078940000    0.75366060800000   -0.27204594450000
C        -1.97534463200000    0.53272154700000   -0.15676645020000
C        -1.11705009580000    1.63238004250000   -0.08810866620000
C         0.25413187560000    1.47228581890000   -0.05363432850000
C         0.77683466210000    0.19410217210000   -0.11305973010000
S         2.55172008560000   -0.03896601440000   -0.05608642440000
C         2.88861196700000   -0.15525748150000    1.72837592880000
O         2.88022684560000   -1.30361026560000   -0.65662075710000
O         3.20024322180000    1.14204179040000   -0.55785037440000
C        -0.04190025200000   -0.90922278570000   -0.19246973380000
C        -1.42937128050000   -0.76478610520000   -0.19496212410000
C        -2.24134647820000   -1.98011254910000   -0.21310824530000
C        -3.38809624550000   -2.15367323990000    0.43055239120000
H        -5.14116824540000    1.86170524180000    0.18537846820000
H        -3.60253468740000    2.42507042920000    0.99776426430000
H        -3.94287318040000    0.05101920560000   -0.90506900640000
H        -1.54081947540000    2.62502180520000   -0.08922112760000
H         0.92691408710000    2.31427254540000   -0.01708825240000
H         2.33946944170000   -1.00206825060000    2.11855118060000
H         2.57123959380000    0.77022257640000    2.19052453210000
H         3.95417631790000   -0.29959836400000    1.85539820940000
H         0.41221865560000   -1.88675087400000   -0.25288985400000
H        -1.80634807930000   -2.80480051530000   -0.76391453020000
H        -3.82738252510000   -1.38070056050000    1.03838748830000
H        -3.91686722810000   -3.09088048010000    0.39091246140000
$end

$rem
BASIS = 6-31G*
GUI = 2
METHOD = B3LYP
PRINT_ORBITALS false
MOLDEN_FORMAT false
--------------------------------------------------------------
 ----------------------------------------------------------------
             Standard Nuclear Orientation (Angstroms)
    I     Atom           X                Y                Z
 ----------------------------------------------------------------
    1      C       4.0182289228    -1.7347245751     0.3249455617
    2      C       3.3578169192    -0.7532757290    -0.2746543597
    3      C       1.9159600747    -0.5332367327    -0.1718387667
    4      C       1.0573387033    -1.6334148020    -0.1169774391
    5      C      -0.3141487223    -1.4737869992    -0.0946202259
    6      C      -0.8365961859    -0.1954218171    -0.1523621123
    7      S      -2.6120002001     0.0369783483    -0.1109404613
    8      C      -2.9657496526     0.1439600256     1.6708401033
    9      O      -2.9351495476     1.3046460682    -0.7079968316
   10      O      -3.2554546601    -1.1415511903    -0.6249085919
   11      C      -0.0174321316     0.9084700830    -0.2183294953
   12      C       1.3700377345     0.7643374405    -0.2084718269
   13      C       2.1818353170     1.9799107566    -0.2126631112
   14      C       3.3224141121     2.1503759637     0.4426833487
   15      H       5.0787551623    -1.8633139787     0.1932936898
   16      H       3.5326674279    -2.4311979604     0.9881928928
   17      H       3.8903398414    -0.0472568580    -0.8990323781
   18      H       1.4813550901    -2.6259491542    -0.1192262129
   19      H      -0.9870292485    -2.3160918513    -0.0687841833
   20      H      -2.4205321565     0.9888539850     2.0705585019
   21      H      -2.6525153042    -0.7838339630     2.1311687359
   22      H      -4.0325025428     0.2874192872     1.7885433214
   23      H      -0.4712120290     1.8862031868    -0.2779744376
   24      H       1.7518429157     2.8073484623    -0.7632762150
   25      H       3.7561426301     1.3743585111     1.0506300485
   26      H       3.8512945309     3.0878860512     0.4128869457
 ----------------------------------------------------------------
 Molecular Point Group                 C1    NOp =  1
 Largest Abelian Subgroup              C1    NOp =  1
 Nuclear Repulsion Energy =         983.55734286 hartrees
 There are       55 alpha and       55 beta electrons
 Requested basis set is 6-31G(d)
 There are 81 shells and 238 basis functions

 Total QAlloc Memory Limit   4000 MB
 Mega-Array Size       188 MB
 MEM_STATIC part       192 MB
 A cutoff of  1.0D-08 yielded   2144 shell pairs
 There are     20044 function pairs
 Smallest overlap matrix eigenvalue = 3.60E-04

 Scale SEOQF with 1.000000e-01/1.000000e-01/1.000000e-01

 Standard Electronic Orientation quadrupole field applied
 Nucleus-field energy     =     0.0000000347 hartrees
 Guess from superposition of atomic densities
 Warning:  Energy on first SCF cycle will be non-variational
 SAD guess density has 110.000000 electrons

 -----------------------------------------------------------------------
  General SCF calculation program by
  Eric Jon Sundstrom, Paul Horn, Yuezhi Mao, Dmitri Zuev, Alec White,
  David Stuck, Shaama M.S., Shane Yost, Joonho Lee, David Small,
  Daniel Levine, Susi Lehtola, Hugh Burton, Evgeny Epifanovsky,
  Bang C. Huynh
 -----------------------------------------------------------------------
 Exchange:     0.2000 Hartree-Fock + 0.0800 Slater + 0.7200 B88
 Correlation:  0.1900 VWN1RPA + 0.8100 LYP
 Using SG-1 standard quadrature grid
 A restricted SCF calculation will be
 performed using DIIS
 SCF converges when DIIS error is below 1.0e-05
 ---------------------------------------
  Cycle       Energy         DIIS error
 ---------------------------------------
    1    -978.4419428487      5.45e-02  
    2    -974.5652591682      7.62e-03  
    3    -974.1008942646      1.22e-02  
    4    -974.8875077614      2.28e-03  
    5    -974.9216194072      5.37e-04  
    6    -974.9229735622      3.07e-04  
    7    -974.9236654990      7.49e-05  
    8    -974.9237058761      1.77e-05  
    9    -974.9237077664      6.89e-06  Convergence criterion met
 ---------------------------------------
 SCF time:   CPU 41.98s  wall 42.00s 
 SCF   energy in the final basis set =     -974.9237077664
 Total energy in the final basis set =     -974.9237077664
 
 --------------------------------------------------------------
 
                    Orbital Energies (a.u.)
 --------------------------------------------------------------
 
 Alpha MOs
 -- Occupied --
-89.0883 -19.1312 -19.1310 -10.2231 -10.2194 -10.2182 -10.2170 -10.2117
-10.2117 -10.2071 -10.2048 -10.2022 -10.1944 -10.1928  -8.1182  -6.0826
 -6.0818  -6.0814  -1.1108  -1.0013  -0.8929  -0.8242  -0.8053  -0.7754
 -0.7531  -0.7413  -0.6668  -0.6395  -0.6163  -0.5854  -0.5559  -0.5266
 -0.5067  -0.4917  -0.4785  -0.4755  -0.4632  -0.4512  -0.4498  -0.4390
 -0.4333  -0.4242  -0.4057  -0.3946  -0.3875  -0.3681  -0.3559  -0.3289
 -0.3141  -0.3100  -0.3089  -0.2946  -0.2871  -0.2603  -0.2389
 -- Virtual --
 -0.0554  -0.0367   0.0217   0.0281   0.0745   0.0920   0.1019   0.1106
  0.1135   0.1170   0.1254   0.1266   0.1431   0.1462   0.1560   0.1633
  0.1732   0.1814   0.1850   0.1947   0.2070   0.2598   0.2900   0.3055
  0.3133   0.3234   0.3373   0.3527   0.3565   0.3793   0.3938   0.4319
  0.4469   0.4735   0.5056   0.5071   0.5138   0.5254   0.5365   0.5469
  0.5489   0.5534   0.5712   0.5745   0.5888   0.5939   0.6088   0.6101
  0.6172   0.6313   0.6549   0.6684   0.6773   0.6867   0.6920   0.7043
  0.7303   0.7637   0.7855   0.7990   0.8033   0.8184   0.8273   0.8437
  0.8460   0.8500   0.8606   0.8652   0.8671   0.8748   0.8865   0.9093
  0.9245   0.9337   0.9368   0.9453   0.9502   0.9660   0.9716   0.9961
  1.0068   1.0235   1.0365   1.0641   1.0802   1.0893   1.1121   1.1351
  1.1563   1.1818   1.1877   1.2052   1.2090   1.2243   1.2413   1.2435
  1.2958   1.3151   1.3518   1.3692   1.4223   1.4401   1.4515   1.4660
  1.4783   1.5050   1.5185   1.5362   1.5516   1.6166   1.6273   1.6681
  1.6942   1.7133   1.7596   1.7721   1.7751   1.7847   1.8241   1.8308
  1.8412   1.8577   1.8811   1.8984   1.9032   1.9484   1.9611   1.9739
  1.9880   2.0005   2.0285   2.0453   2.0855   2.1049   2.1142   2.1388
  2.1532   2.1647   2.1697   2.2067   2.2149   2.2252   2.2342   2.2493
  2.2673   2.2801   2.2931   2.3149   2.3365   2.3756   2.3962   2.4453
  2.4949   2.5769   2.6199   2.6313   2.6578   2.7084   2.7264   2.7367
  2.7647   2.7955   2.8337   2.8632   2.9079   2.9307   3.0261   3.2074
  3.4177   3.8595   3.9096   4.0087   4.0953   4.1027   4.1216   4.1423
  4.1603   4.2267   4.2425   4.2905   4.4023   4.4422   4.7491
 --------------------------------------------------------------
 
          Ground-State Mulliken Net Atomic Charges

     Atom                 Charge (a.u.)
  ----------------------------------------
      1 C                    -0.342444
      2 C                    -0.137004
      3 C                     0.107667
      4 C                    -0.177479
      5 C                    -0.147689
      6 C                    -0.149931
      7 S                     1.073971
      8 C                    -0.625679
      9 O                    -0.522497
     10 O                    -0.521651
     11 C                    -0.214092
     12 C                     0.105377
     13 C                    -0.133434
     14 C                    -0.342226
     15 H                     0.150135
     16 H                     0.146846
     17 H                     0.157370
     18 H                     0.145396
     19 H                     0.175173
     20 H                     0.198614
     21 H                     0.197761
     22 H                     0.216937
     23 H                     0.175580
     24 H                     0.146738
     25 H                     0.165163
     26 H                     0.151398
  ----------------------------------------
  Sum of atomic charges =     0.000000

 -----------------------------------------------------------------
                    Cartesian Multipole Moments
 -----------------------------------------------------------------
    Charge (ESU x 10^10)
                 0.0000
    Dipole Moment (Debye)
         X       4.1677      Y      -0.1154      Z       3.3923
       Tot       5.3750
    Quadrupole Moments (Debye-Ang)
        XX     -92.5980     XY       0.2682     YY     -85.6004
        XZ     -11.1097     YZ      -1.2165     ZZ     -88.9537
    Octopole Moments (Debye-Ang^2)
       XXX      36.0434    XXY       4.8135    XYY      15.3737
       YYY      -0.0932    XXZ      39.4303    XYZ      -4.4792
       YYZ       4.0778    XZZ     -18.1417    YZZ       0.8152
       ZZZ       1.9139
    Hexadecapole Moments (Debye-Ang^3)
      XXXX   -3479.0837   XXXY     -30.5499   XXYY    -758.8353
      XYYY      23.9684   YYYY    -900.2726   XXXZ    -104.8537
      XXYZ      -1.2932   XYYZ      -1.6747   YYYZ     -16.0329
      XXZZ    -637.1940   XYZZ      -0.1034   YYZZ    -213.5629
      XZZZ      -3.9262   YZZZ      -3.0221   ZZZZ    -289.0575
 -----------------------------------------------------------------
Archival summary:
1\1\nia1977.scinet.local\SP\ProcedureUnspecified\6-31G*\121112\rhickman\MonFeb712:25:152022MonFeb712:25:152022\0\\#,ProcedureUnspecified,6-31G*,\\0,1\S\O,1,1.43775\O,1,1.43801,2,118.269\C,1,1.79103,2,109.209,3,-125.533,0\C,4,1.37621,1,119.148,2,154.843,0\H,5,1.07955,4,118.615,1,-2.09617,0\C,4,1.38221,1,119.586,2,-26.2582,0\H,7,1.07838,4,119.18,1,2.6506,0\C,7,1.38093,4,118.792,1,-179.49,0\H,9,1.07931,7,119.769,4,-177.15,0\C,5,1.39497,4,120.585,1,177.918,0\C,9,1.39665,7,121.342,4,1.1722,0\C,11,1.46173,5,117.803,4,-176.968,0\H,13,1.08292,11,114.604,5,-33.3673,0\C,13,1.32645,11,125.662,5,142.943,0\H,15,1.07681,13,121.369,11,-178.245,0\H,15,1.077,13,122.18,11,0.144551,0\C,12,1.46217,9,119.37,7,-176.354,0\H,18,1.08254,12,115.309,9,142.996,0\C,18,1.32624,12,124.793,9,-36.6169,0\H,20,1.07638,18,121.583,12,178.425,0\H,20,1.07738,18,122.16,12,-3.14587,0\C,1,1.8197,2,108.133,3,123.21,0\H,23,1.08204,1,108.052,2,55.0471,0\H,23,1.08207,1,108.038,2,175.813,0\H,23,1.08277,1,107.803,2,-64.5649,0\\\@

 Total job time:  42.32s(wall), 42.19s(cpu) 
 Mon Feb  7 12:25:15 2022

        *************************************************************
        *                                                           *
        *  Thank you very much for using Q-Chem.  Have a nice day.  *
        *                                                           *
        *************************************************************


