
Running Job 1 of 1 fragments/A003/conf-0/spe_input.inp
qchem fragments/A003/conf-0/spe_input.inp_335831.0 /gpfs/fs0/scratch/a/aspuru/rhickman/descriptor_computation/qchem335831/ 0
/scinet/niagara/software/commercial/qc52/exe/qcprog.exe_s fragments/A003/conf-0/spe_input.inp_335831.0 /gpfs/fs0/scratch/a/aspuru/rhickman/descriptor_computation/qchem335831/
                  Welcome to Q-Chem
     A Quantum Leap Into The Future Of Chemistry


 Q-Chem 5.2, Q-Chem, Inc., Pleasanton, CA (2019)

 License issued to: SRG Alan Aspuru-Guzik, University of Toronto

 Yihan Shao,  Zhengting Gan,  E. Epifanovsky,  A. T. B. Gilbert,  M. Wormit,  
 J. Kussmann,  A. W. Lange,  A. Behn,  Jia Deng,  Xintian Feng,  D. Ghosh,  
 M. Goldey,  P. R. Horn,  L. D. Jacobson,  I. Kaliman,  T. Kus,  A. Landau,  
 Jie Liu,  E. I. Proynov,  R. M. Richard,  R. P. Steele,  E. J. Sundstrom,  
 H. L. Woodcock III,  P. M. Zimmerman,  D. Zuev,  B. Albrecht,  E. Alguire,  
 S. A. Baeppler,  D. Barton,  Z. Benda,  Y. A. Bernard,  E. J. Berquist,  
 K. B. Bravaya,  H. Burton,  D. Casanova,  Chun-Min Chang,  Yunqing Chen,  
 A. Chien,  K. D. Closser,  M. P. Coons,  S. Coriani,  S. Dasgupta,  
 A. L. Dempwolff,  M. Diedenhofen,  Hainam Do,  R. G. Edgar,  Po-Tung Fang,  
 S. Faraji,  S. Fatehi,  Qingguo Feng,  K. D. Fenk,  J. Fosso-Tande,  
 J. Gayvert,  Qinghui Ge,  A. Ghysels,  G. Gidofalvi,  J. Gomes,  
 J. Gonthier,  A. Gunina,  D. Hait,  M. W. D. Hanson-Heine,  
 P. H. P. Harbach,  A. W. Hauser,  M. F. Herbst,  J. E. Herr,  
 E. G. Hohenstein,  Z. C. Holden,  Kerwin Hui,  B. C. Huynh,  T.-C. Jagau,  
 Hyunjun Ji,  B. Kaduk,  K. Khistyaev,  Jaehoon Kim,  P. Klunzinger,  K. Koh,  
 D. Kosenkov,  L. Koulias,  T. Kowalczyk,  C. M. Krauter,  A. Kunitsa,  
 Ka Un Lao,  A. Laurent,  K. V. Lawler,  Joonho Lee,  D. Lefrancois,  
 S. Lehtola,  D. S. Levine,  Yi-Pei Li,  You-Sheng Lin,  Fenglai Liu,  
 E. Livshits,  A. Luenser,  P. Manohar,  E. Mansoor,  S. F. Manzer,  
 Shan-Ping Mao,  Yuezhi Mao,  N. Mardirossian,  A. V. Marenich,  
 T. Markovich,  L. A. Martinez-Martinez,  S. A. Maurer,  N. J. Mayhall,  
 S. C. McKenzie,  J.-M. Mewes,  P. Morgante,  A. F. Morrison,  
 J. W. Mullinax,  K. Nanda,  T. S. Nguyen-Beck,  R. Olivares-Amaya,  
 J. A. Parkhill,  Zheng Pei,  T. M. Perrine,  F. Plasser,  P. Pokhilko,  
 S. Prager,  A. Prociuk,  E. Ramos,  D. R. Rehn,  F. Rob,  M. Scheurer,  
 M. Schneider,  N. Sergueev,  S. M. Sharada,  S. Sharma,  D. W. Small,  
 T. Stauch,  T. Stein,  Yu-Chuan Su,  A. J. W. Thom,  A. Tkatchenko,  
 T. Tsuchimochi,  N. M. Tubman,  L. Vogt,  M. L. Vidal,  O. Vydrov,  
 M. A. Watson,  J. Wenzel,  M. de Wergifosse,  T. A. Wesolowski,  A. White,  
 J. Witte,  A. Yamada,  Jun Yang,  K. Yao,  S. Yeganeh,  S. R. Yost,  
 Zhi-Qiang You,  A. Zech,  Igor Ying Zhang,  Xing Zhang,  Yan Zhao,  
 Ying Zhu,  B. R. Brooks,  G. K. L. Chan,  C. J. Cramer,  M. S. Gordon,  
 W. J. Hehre,  A. Klamt,  M. W. Schmidt,  C. D. Sherrill,  D. G. Truhlar,  
 A. Aspuru-Guzik,  R. Baer,  A. T. Bell,  N. A. Besley,  Jeng-Da Chai,  
 A. E. DePrince, III,  R. A. DiStasio Jr.,  A. Dreuw,  B. D. Dunietz,  
 T. R. Furlani,  Chao-Ping Hsu,  Yousung Jung,  Jing Kong,  D. S. Lambrecht,  
 WanZhen Liang,  C. Ochsenfeld,  V. A. Rassolov,  L. V. Slipchenko,  
 J. E. Subotnik,  T. Van Voorhis,  J. M. Herbert,  A. I. Krylov,  
 P. M. W. Gill,  M. Head-Gordon

 Contributors to earlier versions of Q-Chem not listed above: 
 R. D. Adamson,  B. Austin,  J. Baker,  G. J. O. Beran,  K. Brandhorst,  
 S. T. Brown,  E. F. C. Byrd,  A. K. Chakraborty,  C.-L. Cheng,  
 Siu Hung Chien,  D. M. Chipman,  D. L. Crittenden,  H. Dachsel,  
 R. J. Doerksen,  A. D. Dutoi,  L. Fusti-Molnar,  W. A. Goddard III,  
 A. Golubeva-Zadorozhnaya,  S. R. Gwaltney,  G. Hawkins,  A. Heyden,  
 S. Hirata,  G. Kedziora,  F. J. Keil,  C. Kelley,  Jihan Kim,  R. A. King,  
 R. Z. Khaliullin,  P. P. Korambath,  W. Kurlancheek,  A. M. Lee,  M. S. Lee,  
 S. V. Levchenko,  Ching Yeh Lin,  D. Liotard,  R. C. Lochan,  I. Lotan,  
 P. E. Maslen,  N. Nair,  D. P. O'Neill,  D. Neuhauser,  E. Neuscamman,  
 C. M. Oana,  R. Olson,  B. Peters,  R. Peverati,  P. A. Pieniazek,  
 Y. M. Rhee,  J. Ritchie,  M. A. Rohrdanz,  E. Rosta,  N. J. Russ,  
 H. F. Schaefer III,  N. E. Schultz,  N. Shenvi,  A. C. Simmonett,  A. Sodt,  
 D. Stuck,  K. S. Thanthiriwatte,  V. Vanovschi,  Tao Wang,  A. Warshel,  
 C. F. Williams,  Q. Wu,  X. Xu,  W. Zhang

 Please cite Q-Chem as follows:
 Y. Shao et al., Mol. Phys. 113, 184-215 (2015)
 DOI: 10.1080/00268976.2014.952696

 Q-Chem 5.2.1 for Intel X86 EM64T Linux

 Parts of Q-Chem use Armadillo 8.300.2 (Tropical Shenanigans).
 http://arma.sourceforge.net/

 Q-Chem begins on Tue Feb  8 15:20:14 2022  

Host: 
0

     Scratch files written to /gpfs/fs0/scratch/a/aspuru/rhickman/descriptor_computation/qchem335831//
 Jul1719 |scratch|qcdevops|jenkins|workspace|build_RNUM -1
Processing $rem in /scinet/niagara/software/commercial/qc52/config/preferences:
	 MEM_TOTAL  4000 
NAlpha2: 192
NElect   192
Mult     1

Checking the input file for inconsistencies... 	...done.

--------------------------------------------------------------
User input:
--------------------------------------------------------------
$molecule
0 1
C         1.79213126810000   -6.25171418830000    0.52069588090000
O         2.38651867460000   -5.23131285150000   -0.24277520580000
C         1.89877189270000   -3.96353378330000   -0.12575463140000
C         2.52115431890000   -2.99535160950000   -0.91635007110000
C         2.10401363760000   -1.68438598870000   -0.88212453650000
C         1.05508924460000   -1.29716244610000   -0.04697260540000
N         0.63972674710000    0.04342415130000   -0.00165110250000
C        -0.70709352270000    0.36425077790000    0.08386849750000
C        -1.12801266700000    1.52175975130000    0.74676824130000
C        -2.46541501720000    1.83327095550000    0.82783966690000
C        -3.44211582300000    1.00968734590000    0.25873507920000
C        -4.83246760900000    1.40014286670000    0.38702400620000
C        -5.91415421260000    0.76843954420000   -0.04716660010000
F        -5.98411379170000   -0.38370035770000   -0.70872610970000
F        -7.15246162740000    1.23341413220000    0.13604812820000
C        -3.01697671980000   -0.14573734480000   -0.40385764860000
C        -1.67995240480000   -0.46062373510000   -0.49040414150000
C         1.61371982820000    1.05384729660000   -0.04543107590000
C         2.81295284870000    0.90875651090000    0.64318316910000
C         3.78692629190000    1.88989332780000    0.59226681010000
C         3.57321617080000    3.04810054200000   -0.14641515090000
O         4.45733922750000    4.07943007070000   -0.26314150920000
C         5.68965371150000    3.98551700540000    0.40738439640000
C         2.36896932160000    3.19646254250000   -0.83759486710000
C         1.40671708540000    2.21369437060000   -0.79391255310000
C         0.44360279650000   -2.26091739470000    0.74755840880000
C         0.85272631660000   -3.58179777220000    0.70674233770000
H         2.32752211100000   -7.16371126730000    0.26131622250000
H         0.73206822500000   -6.37320268230000    0.27489217090000
H         1.89702721240000   -6.06496050410000    1.59459129760000
H         3.32985671660000   -3.30260193550000   -1.56006128400000
H         2.58800433330000   -0.94643125940000   -1.50412494020000
H        -0.39398643570000    2.16796403390000    1.20445570780000
H        -2.76794127120000    2.72870249720000    1.35119883700000
H        -5.02568691190000    2.32814381040000    0.90620518420000
H        -3.73549244580000   -0.80182084220000   -0.86695931790000
H        -1.37237822960000   -1.35110093360000   -1.01791186220000
H         2.98709389520000    0.01517795070000    1.22416993130000
H         4.70377974880000    1.73883027330000    1.13963567280000
H         6.22443547510000    4.90413244430000    0.17111784140000
H         6.27401761540000    3.12778592010000    0.05830218850000
H         5.55418028430000    3.91565396100000    1.49175910080000
H         2.21675564520000    4.09503098180000   -1.41395061260000
H         0.48531031110000    2.33536805570000   -1.34348733570000
H        -0.36289274660000   -1.97425032530000    1.40626884950000
H         0.35111006330000   -4.29909846200000    1.33675785600000
$end

$rem
BASIS = 6-31G*
GUI = 2
METHOD = B3LYP
PRINT_ORBITALS false
MOLDEN_FORMAT false
--------------------------------------------------------------
 ----------------------------------------------------------------
             Standard Nuclear Orientation (Angstroms)
    I     Atom           X                Y                Z
 ----------------------------------------------------------------
    1      C      -1.5643128210    -6.2707266370    -0.4949018807
    2      O      -2.1790083249    -5.2611838789     0.2669223998
    3      C      -1.7171263054    -3.9839886865     0.1473734793
    4      C      -2.3587418736    -3.0271720513     0.9364293359
    5      C      -1.9682980553    -1.7080785908     0.8996236140
    6      C      -0.9277446753    -1.3011992674     0.0633455013
    7      N      -0.5396836328     0.0474524152     0.0153899545
    8      C       0.8003193545     0.3953794964    -0.0712524457
    9      C       1.1974297179     1.5599616506    -0.7364499993
   10      C       2.5282073192     1.8983923953    -0.8186233500
   11      C       3.5216204396     1.0958486904    -0.2483879322
   12      C       4.9037179636     1.5141942820    -0.3779450679
   13      C       5.9981539055     0.9053714508     0.0569816018
   14      F       6.0917117718    -0.2438859211     0.7206352010
   15      F       7.2267067875     1.3950342330    -0.1275785070
   16      C       3.1202485877    -0.0667357994     0.4165004318
   17      C       1.7899193811    -0.4085232298     0.5041549098
   18      C      -1.5339614088     1.0379857687     0.0576926771
   19      C      -2.7302497896     0.8673201145    -0.6301794741
   20      C      -3.7239111786     1.8285868201    -0.5806864244
   21      C      -3.5334804158     2.9922562602     0.1557757710
   22      O      -4.4383047806     4.0056499714     0.2709507413
   23      C      -5.6686997147     3.8855137019    -0.3989143380
   24      C      -2.3322446929     3.1662989211     0.8462053816
   25      C      -1.3502664127     2.2031767750     0.8039539982
   26      C      -0.2971140740    -2.2538179433    -0.7296497778
   27      C      -0.6793388619    -3.5826492510    -0.6862384283
   28      H      -2.0809968231    -7.1929169281    -0.2336308662
   29      H      -0.5019152802    -6.3702278012    -0.2492933366
   30      H      -1.6733600977    -6.0881268331    -1.5690980764
   31      H      -3.1608137545    -3.3495751602     1.5810248600
   32      H      -2.4669394635    -0.9789457579     1.5204542964
   33      H       0.4502799458     2.1902925451    -1.1950374846
   34      H       2.8123164423     2.7988076478    -1.3437509349
   35      H       5.0778833225     2.4449622078    -0.8989115180
   36      H       3.8520934269    -0.7072485293     0.8805264379
   37      H       1.5006643381    -1.3040799076     1.0334239025
   38      H      -2.8864324283    -0.0306810222    -1.2094499695
   39      H      -4.6377064875     1.6579405901    -1.1274139409
   40      H      -6.2219250940     4.7935255800    -0.1641296424
   41      H      -6.2354156596     3.0167505076    -0.0480215841
   42      H      -5.5322242557     3.8164074379    -1.4832118836
   43      H      -2.1980878060     4.0688354546     1.4208443327
   44      H      -0.4313216423     2.3445361978     1.3529397845
   45      H       0.5031636684    -1.9520663448    -1.3892057058
   46      H      -0.1634974485    -4.2907895605    -1.3151292270
 ----------------------------------------------------------------
 Molecular Point Group                 C1    NOp =  1
 Largest Abelian Subgroup              C1    NOp =  1
 Nuclear Repulsion Energy =        2285.47035266 hartrees
 There are       96 alpha and       96 beta electrons
 Requested basis set is 6-31G(d)
 There are 146 shells and 443 basis functions

 Total QAlloc Memory Limit   4000 MB
 Mega-Array Size       188 MB
 MEM_STATIC part       192 MB
 A cutoff of  1.0D-08 yielded   4443 shell pairs
 There are     43275 function pairs
 Smallest overlap matrix eigenvalue = 3.49E-04

 Scale SEOQF with 1.000000e-02/1.000000e-02/1.000000e-01

 Standard Electronic Orientation quadrupole field applied
 Nucleus-field energy     =     0.0000000109 hartrees
 Guess from superposition of atomic densities
 Warning:  Energy on first SCF cycle will be non-variational
 SAD guess density has 192.000000 electrons

 -----------------------------------------------------------------------
  General SCF calculation program by
  Eric Jon Sundstrom, Paul Horn, Yuezhi Mao, Dmitri Zuev, Alec White,
  David Stuck, Shaama M.S., Shane Yost, Joonho Lee, David Small,
  Daniel Levine, Susi Lehtola, Hugh Burton, Evgeny Epifanovsky,
  Bang C. Huynh
 -----------------------------------------------------------------------
 Exchange:     0.2000 Hartree-Fock + 0.0800 Slater + 0.7200 B88
 Correlation:  0.1900 VWN1RPA + 0.8100 LYP
 Using SG-1 standard quadrature grid
 A restricted SCF calculation will be
 performed using DIIS
 SCF converges when DIIS error is below 1.0e-05
 ---------------------------------------
  Cycle       Energy         DIIS error
 ---------------------------------------
    1   -1261.3067833445      3.91e-02  
    2   -1254.2332438751      3.85e-03  
    3   -1254.0600482804      4.71e-03  
    4   -1254.5759728447      1.06e-03  
    5   -1254.6024617282      3.29e-04  
    6   -1254.6042707380      1.94e-04  
    7   -1254.6052506839      5.42e-05  
    8   -1254.6053137732      2.24e-05  
    9   -1254.6053265541      4.60e-06  Convergence criterion met
 ---------------------------------------
 SCF time:   CPU 140.38s  wall 141.00s 
 SCF   energy in the final basis set =    -1254.6053265541
 Total energy in the final basis set =    -1254.6053265541
 
 --------------------------------------------------------------
 
                    Orbital Energies (a.u.)
 --------------------------------------------------------------
 
 Alpha MOs
 -- Occupied --
-24.7353 -24.7245 -19.1758 -19.1757 -14.3613 -10.3453 -10.2419 -10.2419
-10.2394 -10.2394 -10.2233 -10.2184 -10.2184 -10.1948 -10.1930 -10.1864
-10.1863 -10.1856 -10.1854 -10.1853 -10.1851 -10.1848 -10.1824 -10.1823
-10.1821 -10.1795 -10.1794  -1.2749  -1.2145  -1.0658  -1.0658  -0.9749
 -0.8613  -0.8577  -0.8418  -0.7976  -0.7667  -0.7580  -0.7510  -0.7476
 -0.7435  -0.7230  -0.7020  -0.6813  -0.6401  -0.6252  -0.6186  -0.6097
 -0.6004  -0.5969  -0.5715  -0.5624  -0.5426  -0.5402  -0.5303  -0.5207
 -0.5120  -0.5091  -0.4878  -0.4801  -0.4704  -0.4703  -0.4681  -0.4509
 -0.4494  -0.4458  -0.4400  -0.4319  -0.4278  -0.4260  -0.4248  -0.4216
 -0.4161  -0.4146  -0.4081  -0.4011  -0.3864  -0.3819  -0.3797  -0.3762
 -0.3676  -0.3636  -0.3563  -0.3412  -0.3366  -0.3264  -0.3257  -0.3220
 -0.3073  -0.2682  -0.2587  -0.2507  -0.2485  -0.2247  -0.2195  -0.1659
 -- Virtual --
 -0.0214  -0.0117   0.0013   0.0095   0.0130   0.0349   0.0813   0.0925
  0.0955   0.0968   0.1094   0.1098   0.1270   0.1381   0.1400   0.1484
  0.1510   0.1519   0.1563   0.1566   0.1606   0.1643   0.1669   0.1703
  0.1717   0.1792   0.1817   0.1902   0.1959   0.2014   0.2066   0.2086
  0.2123   0.2195   0.2540   0.2584   0.2656   0.2740   0.2915   0.3044
  0.3072   0.3236   0.3357   0.3417   0.3459   0.3548   0.3648   0.3865
  0.3893   0.3973   0.4212   0.4283   0.4763   0.4801   0.4883   0.5036
  0.5082   0.5149   0.5236   0.5247   0.5269   0.5312   0.5391   0.5428
  0.5462   0.5479   0.5497   0.5571   0.5595   0.5628   0.5722   0.5764
  0.5841   0.5869   0.5899   0.5930   0.5940   0.5976   0.5989   0.6012
  0.6042   0.6062   0.6106   0.6119   0.6208   0.6321   0.6334   0.6365
  0.6460   0.6520   0.6627   0.6675   0.6734   0.6797   0.6918   0.6982
  0.7134   0.7219   0.7393   0.7423   0.7446   0.7855   0.8058   0.8075
  0.8126   0.8157   0.8213   0.8315   0.8387   0.8451   0.8481   0.8490
  0.8509   0.8521   0.8534   0.8602   0.8669   0.8733   0.8744   0.8844
  0.8861   0.8914   0.8948   0.9124   0.9164   0.9330   0.9358   0.9509
  0.9539   0.9561   0.9615   0.9699   0.9890   0.9990   1.0047   1.0135
  1.0155   1.0199   1.0232   1.0527   1.0551   1.0592   1.0724   1.0792
  1.1064   1.1198   1.1350   1.1377   1.1522   1.1606   1.1647   1.1681
  1.1721   1.1802   1.1889   1.2095   1.2191   1.2243   1.2319   1.2471
  1.2496   1.2626   1.2657   1.2794   1.2819   1.3027   1.3103   1.3180
  1.3493   1.3541   1.3696   1.3762   1.3780   1.4054   1.4109   1.4188
  1.4224   1.4295   1.4361   1.4394   1.4566   1.4596   1.4683   1.4727
  1.4745   1.4809   1.4928   1.5075   1.5124   1.5186   1.5208   1.5259
  1.5364   1.5485   1.5562   1.6051   1.6552   1.6771   1.6845   1.7171
  1.7290   1.7333   1.7512   1.7701   1.7901   1.7907   1.7928   1.8017
  1.8168   1.8380   1.8396   1.8438   1.8449   1.8526   1.8619   1.8643
  1.8819   1.8866   1.8923   1.8942   1.9019   1.9224   1.9338   1.9354
  1.9459   1.9756   1.9788   1.9916   1.9980   1.9989   2.0116   2.0121
  2.0222   2.0272   2.0425   2.0512   2.0644   2.0740   2.0746   2.0851
  2.0918   2.1004   2.1095   2.1111   2.1173   2.1200   2.1455   2.1584
  2.1611   2.1646   2.1693   2.1718   2.1791   2.1906   2.2422   2.2453
  2.2484   2.2536   2.2577   2.2677   2.2686   2.2871   2.3111   2.3234
  2.3308   2.3361   2.3524   2.3607   2.3629   2.3668   2.3732   2.3820
  2.4336   2.4484   2.4925   2.5142   2.5289   2.5360   2.5410   2.5446
  2.5622   2.5709   2.5989   2.6334   2.6392   2.6444   2.6561   2.6613
  2.6817   2.6854   2.6871   2.6928   2.7009   2.7341   2.7442   2.7689
  2.7740   2.7920   2.7965   2.8252   2.8528   2.8620   2.8694   2.9132
  2.9229   2.9295   2.9745   2.9915   3.0013   3.0331   3.0627   3.1111
  3.1484   3.1732   3.2618   3.2938   3.3420   3.4577   3.4856   3.4953
  4.0600   4.0615   4.0879   4.1219   4.1286   4.1326   4.1394   4.1541
  4.1547   4.1859   4.2454   4.2522   4.2875   4.2965   4.3305   4.3483
  4.3722   4.3788   4.3954   4.4776   4.4899   4.5668   4.7246   4.8069
  4.8115   4.8419   5.2856
 --------------------------------------------------------------
 
          Ground-State Mulliken Net Atomic Charges

     Atom                 Charge (a.u.)
  ----------------------------------------
      1 C                    -0.213400
      2 O                    -0.507240
      3 C                     0.378970
      4 C                    -0.184428
      5 C                    -0.164521
      6 C                     0.273749
      7 N                    -0.655746
      8 C                     0.306861
      9 C                    -0.182253
     10 C                    -0.205553
     11 C                     0.197448
     12 C                    -0.298446
     13 C                     0.533462
     14 F                    -0.239898
     15 F                    -0.254297
     16 C                    -0.206083
     17 C                    -0.181134
     18 C                     0.271829
     19 C                    -0.173053
     20 C                    -0.205358
     21 C                     0.379010
     22 O                    -0.507012
     23 C                    -0.213304
     24 C                    -0.184550
     25 C                    -0.165393
     26 C                    -0.174217
     27 C                    -0.205760
     28 H                     0.168659
     29 H                     0.149732
     30 H                     0.149108
     31 H                     0.137855
     32 H                     0.147770
     33 H                     0.147024
     34 H                     0.126397
     35 H                     0.155134
     36 H                     0.137365
     37 H                     0.147285
     38 H                     0.146659
     39 H                     0.131860
     40 H                     0.168743
     41 H                     0.149273
     42 H                     0.149361
     43 H                     0.138569
     44 H                     0.149312
     45 H                     0.148068
     46 H                     0.132142
  ----------------------------------------
  Sum of atomic charges =     0.000000

 -----------------------------------------------------------------
                    Cartesian Multipole Moments
 -----------------------------------------------------------------
    Charge (ESU x 10^10)
                 0.0000
    Dipole Moment (Debye)
         X      -2.6203      Y      -0.8886      Z      -1.6815
       Tot       3.2377
    Quadrupole Moments (Debye-Ang)
        XX    -151.6232     XY      -5.3878     YY    -136.6872
        XZ       2.9418     YZ       1.7316     ZZ    -152.3988
    Octopole Moments (Debye-Ang^2)
       XXX    -133.2315    XXY      54.7885    XYY      18.2304
       YYY    -101.8239    XXZ     -27.9992    XYZ       3.3953
       YYZ     -40.5584    XZZ      20.9214    YZZ      -0.1107
       ZZZ       6.8114
    Hexadecapole Moments (Debye-Ang^3)
      XXXX  -10242.4230   XXXY    -441.9674   XXYY   -2698.3902
      XYYY      70.7493   YYYY   -6163.2610   XXXZ     106.4869
      XXYZ    -107.7150   XYYZ      73.0866   YYYZ     149.8900
      XXZZ   -1759.7687   XYZZ      18.8798   YYZZ   -1229.3270
      XZZZ      28.1928   YZZZ       1.4850   ZZZZ    -504.9124
 -----------------------------------------------------------------
Archival summary:
1\1\nia2015.scinet.local\SP\ProcedureUnspecified\6-31G*\2212219\rhickman\TueFeb815:22:352022TueFeb815:22:352022\0\\#,ProcedureUnspecified,6-31G*,\\0,1\N\C,1,1.38714\C,2,1.39873,1,120.851\H,3,1.07975,2,119.445,1,-0.533553,0\C,3,1.37559,2,120.525,1,-179.983,0\H,5,1.08038,3,119.241,2,179.547,0\C,5,1.39861,3,121.441,2,0.165307,0\C,7,1.39813,5,117.848,3,-0.211551,0\H,8,1.07758,7,120.27,5,-179.25,0\C,8,1.37633,7,120.948,5,0.0684959,0\H,10,1.07973,8,119.745,7,-179.2,0\C,1,1.40411,2,120.597,3,-31.0641,0\C,12,1.39047,1,120.513,2,140.543,0\H,13,1.07998,12,119.461,1,-0.717341,0\C,13,1.38342,12,120.996,1,179.115,0\H,15,1.07845,13,118.719,12,-179.933,0\C,15,1.39024,13,120.144,12,0.48562,0\O,17,1.36343,15,125.168,13,179.739,0\C,12,1.39582,1,120.784,2,-40.3435,0\H,19,1.07973,12,119.546,1,0.147341,0\C,19,1.37611,12,120.448,1,-179.656,0\H,21,1.07832,19,120.889,12,179.965,0\C,1,1.40419,2,120.664,3,148.978,0\C,23,1.39069,1,120.871,2,-40.2443,0\H,24,1.08005,23,119.527,1,0.142935,0\C,24,1.38339,23,120.984,1,-179.869,0\H,26,1.07845,24,118.703,23,-179.847,0\C,26,1.39032,24,120.155,23,0.685865,0\O,28,1.3634,26,125.16,24,179.763,0\C,23,1.39559,1,120.433,2,140.525,0\H,30,1.07968,23,119.474,1,-0.732802,0\C,30,1.37616,23,120.466,1,179.295,0\H,32,1.07832,30,120.905,23,179.906,0\C,18,1.40607,17,118.488,15,0.0442263,0\H,34,1.08888,18,105.701,17,179.769,0\H,34,1.09501,18,111.593,17,61.1209,0\H,34,1.09504,18,111.597,17,-61.5892,0\C,29,1.4062,28,118.486,26,0.594501,0\H,38,1.08888,29,105.7,28,179.397,0\H,38,1.09495,29,111.583,28,60.7505,0\H,38,1.09505,29,111.605,28,-61.9644,0\C,7,1.44982,5,118.366,3,179.839,0\H,42,1.08077,7,116.436,5,1.1797,0\C,42,1.32575,7,128.692,5,-178.687,0\F,44,1.33041,42,128.199,7,0.0417014,0\F,44,1.33536,42,123.077,7,179.909,0\\\@

 Total job time:  141.38s(wall), 140.86s(cpu) 
 Tue Feb  8 15:22:35 2022

        *************************************************************
        *                                                           *
        *  Thank you very much for using Q-Chem.  Have a nice day.  *
        *                                                           *
        *************************************************************


