20
 energy: -43.328232032385 gnorm: 0.000122316931 xtb: 6.4.1 (23d549d)
C         3.87555698220000    0.08240335060000    0.08377871610000
C         2.77859279120000    0.82580921210000   -0.02011375790000
C         1.39745289630000    0.36531019160000   -0.01269954760000
C         0.36471173840000    1.31175289650000   -0.01205344220000
F         0.67932900760000    2.61752078380000   -0.01528652600000
C        -0.97731169650000    0.96909991940000   -0.00455613430000
F        -1.86998975060000    1.96980246710000   -0.00380893220000
C        -1.39751233960000   -0.36542877780000   -0.00080859040000
C        -2.77820454610000   -0.82701127050000    0.00648153090000
C        -3.87777094860000   -0.08117262210000    0.04543554980000
C        -0.36455908730000   -1.31184573670000   -0.00791454040000
F        -0.67870510570000   -2.61773816770000   -0.00942955550000
C         0.97746527590000   -0.96915523110000   -0.01281413720000
F         1.87061521680000   -1.96938469020000   -0.02559732750000
H         4.84662978720000    0.54662852490000    0.06770554560000
H         3.86311232550000   -0.98683817420000    0.18967268140000
H         2.87675964300000    1.89914241920000   -0.11282729720000
H        -2.87431993830000   -1.90424579640000   -0.02030452210000
H        -3.86938276300000    0.99284273520000    0.07705942530000
H        -4.84753307490000   -0.54846999220000    0.04742720940000
