28
 energy: -41.865461250489 gnorm: 0.000021645995 xtb: 6.4.1 (23d549d)
C         2.95921749520000   -0.69360583090000    2.60252579760000
C         3.53515590090000   -0.10246145880000    1.56350892210000
C         2.80242575620000    0.28079096710000    0.36090801220000
C         3.44991848810000    0.93644184380000   -0.69126366470000
C         2.71351579230000    1.29284840440000   -1.80640421450000
C         1.36590937690000    0.97939155400000   -1.85105042420000
C         0.80353949060000    0.31222298480000   -0.75973621210000
C        -0.62661244580000   -0.05536906650000   -0.74466658920000
C        -1.27708254070000   -0.47350152380000   -1.90738147270000
C        -2.61894099230000   -0.80513081030000   -1.82599489290000
C        -3.26602903680000   -0.71176044800000   -0.60772154460000
C        -2.53591087090000   -0.29324294940000    0.50909484820000
C        -3.09985049050000   -0.16300296650000    1.84928541450000
C        -4.35000577940000   -0.42240869650000    2.21006326600000
N        -1.24729034240000    0.02316663440000    0.42186430990000
N         1.50850666940000   -0.01711633710000    0.30971819630000
H         3.51218558710000   -0.96855664690000    3.48442626300000
H         1.90529167340000   -0.91127988630000    2.58071444690000
H         4.59234612960000    0.13025298660000    1.56308802050000
H         4.50359787950000    1.16349448490000   -0.62657540900000
H         3.18227202060000    1.81118351560000   -2.63142296630000
H         0.75973784910000    1.26276840490000   -2.69760727390000
H        -0.74196659030000   -0.55746395950000   -2.84063557750000
H        -3.15375169170000   -1.13587520030000   -2.70558774910000
H        -4.31135954440000   -0.96181825120000   -0.52376288740000
H        -2.37871468460000    0.18042353590000    2.57822246260000
H        -5.09992346650000   -0.76759019240000    1.51816635140000
H        -4.67485277820000   -0.29741107310000    3.22886748630000
