
Running Job 1 of 1 fragments/A027/conf-0/spe_input.inp
qchem fragments/A027/conf-0/spe_input.inp_357374.0 /gpfs/fs0/scratch/a/aspuru/rhickman/descriptor_computation/qchem357374/ 0
/scinet/niagara/software/commercial/qc52/exe/qcprog.exe_s fragments/A027/conf-0/spe_input.inp_357374.0 /gpfs/fs0/scratch/a/aspuru/rhickman/descriptor_computation/qchem357374/
                  Welcome to Q-Chem
     A Quantum Leap Into The Future Of Chemistry


 Q-Chem 5.2, Q-Chem, Inc., Pleasanton, CA (2019)

 License issued to: SRG Alan Aspuru-Guzik, University of Toronto

 Yihan Shao,  Zhengting Gan,  E. Epifanovsky,  A. T. B. Gilbert,  M. Wormit,  
 J. Kussmann,  A. W. Lange,  A. Behn,  Jia Deng,  Xintian Feng,  D. Ghosh,  
 M. Goldey,  P. R. Horn,  L. D. Jacobson,  I. Kaliman,  T. Kus,  A. Landau,  
 Jie Liu,  E. I. Proynov,  R. M. Richard,  R. P. Steele,  E. J. Sundstrom,  
 H. L. Woodcock III,  P. M. Zimmerman,  D. Zuev,  B. Albrecht,  E. Alguire,  
 S. A. Baeppler,  D. Barton,  Z. Benda,  Y. A. Bernard,  E. J. Berquist,  
 K. B. Bravaya,  H. Burton,  D. Casanova,  Chun-Min Chang,  Yunqing Chen,  
 A. Chien,  K. D. Closser,  M. P. Coons,  S. Coriani,  S. Dasgupta,  
 A. L. Dempwolff,  M. Diedenhofen,  Hainam Do,  R. G. Edgar,  Po-Tung Fang,  
 S. Faraji,  S. Fatehi,  Qingguo Feng,  K. D. Fenk,  J. Fosso-Tande,  
 J. Gayvert,  Qinghui Ge,  A. Ghysels,  G. Gidofalvi,  J. Gomes,  
 J. Gonthier,  A. Gunina,  D. Hait,  M. W. D. Hanson-Heine,  
 P. H. P. Harbach,  A. W. Hauser,  M. F. Herbst,  J. E. Herr,  
 E. G. Hohenstein,  Z. C. Holden,  Kerwin Hui,  B. C. Huynh,  T.-C. Jagau,  
 Hyunjun Ji,  B. Kaduk,  K. Khistyaev,  Jaehoon Kim,  P. Klunzinger,  K. Koh,  
 D. Kosenkov,  L. Koulias,  T. Kowalczyk,  C. M. Krauter,  A. Kunitsa,  
 Ka Un Lao,  A. Laurent,  K. V. Lawler,  Joonho Lee,  D. Lefrancois,  
 S. Lehtola,  D. S. Levine,  Yi-Pei Li,  You-Sheng Lin,  Fenglai Liu,  
 E. Livshits,  A. Luenser,  P. Manohar,  E. Mansoor,  S. F. Manzer,  
 Shan-Ping Mao,  Yuezhi Mao,  N. Mardirossian,  A. V. Marenich,  
 T. Markovich,  L. A. Martinez-Martinez,  S. A. Maurer,  N. J. Mayhall,  
 S. C. McKenzie,  J.-M. Mewes,  P. Morgante,  A. F. Morrison,  
 J. W. Mullinax,  K. Nanda,  T. S. Nguyen-Beck,  R. Olivares-Amaya,  
 J. A. Parkhill,  Zheng Pei,  T. M. Perrine,  F. Plasser,  P. Pokhilko,  
 S. Prager,  A. Prociuk,  E. Ramos,  D. R. Rehn,  F. Rob,  M. Scheurer,  
 M. Schneider,  N. Sergueev,  S. M. Sharada,  S. Sharma,  D. W. Small,  
 T. Stauch,  T. Stein,  Yu-Chuan Su,  A. J. W. Thom,  A. Tkatchenko,  
 T. Tsuchimochi,  N. M. Tubman,  L. Vogt,  M. L. Vidal,  O. Vydrov,  
 M. A. Watson,  J. Wenzel,  M. de Wergifosse,  T. A. Wesolowski,  A. White,  
 J. Witte,  A. Yamada,  Jun Yang,  K. Yao,  S. Yeganeh,  S. R. Yost,  
 Zhi-Qiang You,  A. Zech,  Igor Ying Zhang,  Xing Zhang,  Yan Zhao,  
 Ying Zhu,  B. R. Brooks,  G. K. L. Chan,  C. J. Cramer,  M. S. Gordon,  
 W. J. Hehre,  A. Klamt,  M. W. Schmidt,  C. D. Sherrill,  D. G. Truhlar,  
 A. Aspuru-Guzik,  R. Baer,  A. T. Bell,  N. A. Besley,  Jeng-Da Chai,  
 A. E. DePrince, III,  R. A. DiStasio Jr.,  A. Dreuw,  B. D. Dunietz,  
 T. R. Furlani,  Chao-Ping Hsu,  Yousung Jung,  Jing Kong,  D. S. Lambrecht,  
 WanZhen Liang,  C. Ochsenfeld,  V. A. Rassolov,  L. V. Slipchenko,  
 J. E. Subotnik,  T. Van Voorhis,  J. M. Herbert,  A. I. Krylov,  
 P. M. W. Gill,  M. Head-Gordon

 Contributors to earlier versions of Q-Chem not listed above: 
 R. D. Adamson,  B. Austin,  J. Baker,  G. J. O. Beran,  K. Brandhorst,  
 S. T. Brown,  E. F. C. Byrd,  A. K. Chakraborty,  C.-L. Cheng,  
 Siu Hung Chien,  D. M. Chipman,  D. L. Crittenden,  H. Dachsel,  
 R. J. Doerksen,  A. D. Dutoi,  L. Fusti-Molnar,  W. A. Goddard III,  
 A. Golubeva-Zadorozhnaya,  S. R. Gwaltney,  G. Hawkins,  A. Heyden,  
 S. Hirata,  G. Kedziora,  F. J. Keil,  C. Kelley,  Jihan Kim,  R. A. King,  
 R. Z. Khaliullin,  P. P. Korambath,  W. Kurlancheek,  A. M. Lee,  M. S. Lee,  
 S. V. Levchenko,  Ching Yeh Lin,  D. Liotard,  R. C. Lochan,  I. Lotan,  
 P. E. Maslen,  N. Nair,  D. P. O'Neill,  D. Neuhauser,  E. Neuscamman,  
 C. M. Oana,  R. Olson,  B. Peters,  R. Peverati,  P. A. Pieniazek,  
 Y. M. Rhee,  J. Ritchie,  M. A. Rohrdanz,  E. Rosta,  N. J. Russ,  
 H. F. Schaefer III,  N. E. Schultz,  N. Shenvi,  A. C. Simmonett,  A. Sodt,  
 D. Stuck,  K. S. Thanthiriwatte,  V. Vanovschi,  Tao Wang,  A. Warshel,  
 C. F. Williams,  Q. Wu,  X. Xu,  W. Zhang

 Please cite Q-Chem as follows:
 Y. Shao et al., Mol. Phys. 113, 184-215 (2015)
 DOI: 10.1080/00268976.2014.952696

 Q-Chem 5.2.1 for Intel X86 EM64T Linux

 Parts of Q-Chem use Armadillo 8.300.2 (Tropical Shenanigans).
 http://arma.sourceforge.net/

 Q-Chem begins on Tue Feb  8 16:29:17 2022  

Host: 
0

     Scratch files written to /gpfs/fs0/scratch/a/aspuru/rhickman/descriptor_computation/qchem357374//
 Jul1719 |scratch|qcdevops|jenkins|workspace|build_RNUM -1
Processing $rem in /scinet/niagara/software/commercial/qc52/config/preferences:
	 MEM_TOTAL  4000 
NAlpha2: 174
NElect   174
Mult     1

Checking the input file for inconsistencies... 	...done.

--------------------------------------------------------------
User input:
--------------------------------------------------------------
$molecule
0 1
C        -4.26258496690000   -4.33032263640000   -0.09149909100000
C        -3.30121367740000   -3.17900441390000   -0.09431910730000
C        -3.74902085240000   -1.87420058940000    0.00831495020000
C        -2.82678967620000   -0.83589108040000    0.00931628840000
C        -2.95502250940000    0.59336752070000    0.07224206430000
C        -4.04458740740000    1.44601263760000    0.19183246860000
C        -3.83357919800000    2.81172293600000    0.25483867000000
C        -4.98268580690000    3.76811814270000    0.37616226760000
C        -2.52710920990000    3.30990664430000    0.21563106730000
C        -1.42665405660000    2.48497282320000    0.09723398520000
C        -1.64610681320000    1.11819497120000    0.00509460120000
N        -0.73871033990000    0.07749210340000   -0.08682109030000
C         0.64755229020000    0.20486854560000   -0.17344820200000
C         1.48098982720000   -0.56369383000000    0.63837069360000
C         2.85171546610000   -0.44464597140000    0.55030497680000
C         3.43424676600000    0.45279000010000   -0.34820024900000
C         4.86838127230000    0.63031635750000   -0.49184242650000
C         5.84679614930000    0.00353518370000    0.14574533140000
F         5.74754148150000   -0.94166593960000    1.07365532940000
F         7.13664709450000    0.25477990080000   -0.07574259890000
C         2.59060350870000    1.22312021800000   -1.15368356180000
C         1.22048919210000    1.10207537760000   -1.07406893970000
C        -1.44548289600000   -1.11242739320000   -0.08296746240000
C        -0.99251699030000   -2.41706592860000   -0.21502344520000
C        -1.93025954440000   -3.43001479850000   -0.21325955600000
H        -5.28952887600000   -3.97924640320000   -0.03148063160000
H        -4.06972749330000   -4.98404078720000    0.75871526310000
H        -4.15013639290000   -4.92334766000000   -0.99840792060000
H        -4.80510692490000   -1.65991696990000    0.08132901840000
H        -5.04501650830000    1.04190668740000    0.24073218890000
H        -5.92824962970000    3.23480229980000    0.43035819360000
H        -5.01165609690000    4.43817562080000   -0.48268897090000
H        -4.87679797420000    4.38005322150000    1.27122416110000
H        -2.37789823280000    4.37791500140000    0.28548170810000
H        -0.42853322360000    2.89631889490000    0.09202597630000
H         1.04350264540000   -1.24241710340000    1.35457845830000
H         3.46913238040000   -1.04841650500000    1.19468895150000
H         5.19246484130000    1.36709909630000   -1.21291438600000
H         3.02139591780000    1.91828689280000   -1.85940492000000
H         0.58393878780000    1.68555507530000   -1.72173658860000
H         0.05753226060000   -2.63953154070000   -0.33007132440000
H        -1.59782991380000   -4.45350101470000   -0.31150713010000
$end

$rem
BASIS = 6-31G*
GUI = 2
METHOD = B3LYP
PRINT_ORBITALS false
MOLDEN_FORMAT false
--------------------------------------------------------------
 ----------------------------------------------------------------
             Standard Nuclear Orientation (Angstroms)
    I     Atom           X                Y                Z
 ----------------------------------------------------------------
    1      C      -4.1529253339    -4.3206866757    -0.1032933666
    2      C      -3.1880176462    -3.1723280372    -0.1018970171
    3      C      -3.6322568427    -1.8661548812    -0.0011931990
    4      C      -2.7068526387    -0.8306841712     0.0038515628
    5      C      -2.8309663624     0.5989613814     0.0662441831
    6      C      -3.9184175258     1.4549499067     0.1810955595
    7      C      -3.7034906605     2.8200050145     0.2450475751
    8      C      -4.8501714448     3.7799260940     0.3613742933
    9      C      -2.3953373808     3.3141719791     0.2115500977
   10      C      -1.2969161722     2.4858611479     0.0979400707
   11      C      -1.5201636305     1.1197645992     0.0048182846
   12      N      -0.6155769144     0.0762788390    -0.0831570210
   13      C       0.7714353517     0.1993953543    -0.1637323975
   14      C       1.5989572335    -0.5717288541     0.6517007162
   15      C       2.9704134145    -0.4568931321     0.5696188007
   16      C       3.5596144415     0.4387534555    -0.3263192658
   17      C       4.9949007724     0.6118728560    -0.4636993464
   18      C       5.9685938043    -0.0179153669     0.1781395229
   19      F       5.8623874549    -0.9628120845     1.1055898027
   20      F       7.2601648090     0.2293658330    -0.0377137144
   21      C       2.7218647735     1.2116768242    -1.1354613530
   22      C       1.3510506437     1.0948422973    -1.0618278221
   23      C      -1.3260126185    -1.1114632444    -0.0824096372
   24      C      -0.8764858828    -2.4174868040    -0.2125125890
   25      C      -1.8173353805    -3.4275493453    -0.2148593505
   26      H      -5.1790377017    -3.9664567675    -0.0477495977
   27      H      -3.9657890267    -4.9749989949     0.7477420411
   28      H      -4.0383435777    -4.9140495001    -1.0097141108
   29      H      -4.6879879994    -1.6486274617     0.0672163236
   30      H      -4.9202874820     1.0539197812     0.2256221465
   31      H      -5.7975970503     3.2495180634     0.4114339865
   32      H      -4.8733350100     4.4500741073    -0.4975825397
   33      H      -4.7463101057     4.3915280306     1.2569012110
   34      H      -2.2431515134     4.3817164083     0.2820712427
   35      H      -0.2975228399     2.8941382158     0.0970948443
   36      H       1.1562657249    -1.2491084844     1.3659800334
   37      H       3.5831546784    -1.0625615626     1.2166791579
   38      H       5.3243899123     1.3476601780    -1.1833365175
   39      H       3.1578663778     1.9055202933    -1.8392832640
   40      H       0.7191281398     1.6802788003    -1.7122556876
   41      H       0.1733667991    -2.6431773983    -0.3229820165
   42      H      -1.4876267887    -4.4520517055    -0.3116748359
 ----------------------------------------------------------------
 Molecular Point Group                 C1    NOp =  1
 Largest Abelian Subgroup              C1    NOp =  1
 Nuclear Repulsion Energy =        1980.71231168 hartrees
 There are       87 alpha and       87 beta electrons
 Requested basis set is 6-31G(d)
 There are 134 shells and 409 basis functions

 Total QAlloc Memory Limit   4000 MB
 Mega-Array Size       188 MB
 MEM_STATIC part       192 MB
 A cutoff of  1.0D-08 yielded   4021 shell pairs
 There are     41183 function pairs
 Smallest overlap matrix eigenvalue = 2.51E-04

 Scale SEOQF with 1.000000e-02/1.000000e-01/1.000000e-01

 Standard Electronic Orientation quadrupole field applied
 Nucleus-field energy     =     0.0000000591 hartrees
 Guess from superposition of atomic densities
 Warning:  Energy on first SCF cycle will be non-variational
 SAD guess density has 174.000000 electrons

 -----------------------------------------------------------------------
  General SCF calculation program by
  Eric Jon Sundstrom, Paul Horn, Yuezhi Mao, Dmitri Zuev, Alec White,
  David Stuck, Shaama M.S., Shane Yost, Joonho Lee, David Small,
  Daniel Levine, Susi Lehtola, Hugh Burton, Evgeny Epifanovsky,
  Bang C. Huynh
 -----------------------------------------------------------------------
 Exchange:     0.2000 Hartree-Fock + 0.0800 Slater + 0.7200 B88
 Correlation:  0.1900 VWN1RPA + 0.8100 LYP
 Using SG-1 standard quadrature grid
 A restricted SCF calculation will be
 performed using DIIS
 SCF converges when DIIS error is below 1.0e-05
 ---------------------------------------
  Cycle       Energy         DIIS error
 ---------------------------------------
    1   -1109.5387144466      4.10e-02  
    2   -1102.6432686306      4.12e-03  
    3   -1102.4299768671      5.25e-03  
    4   -1102.9768049778      1.40e-03  
    5   -1103.0159966580      4.43e-04  
    6   -1103.0195258343      2.29e-04  
    7   -1103.0206848155      4.16e-05  
    8   -1103.0207125092      2.14e-05  
    9   -1103.0207223341      4.20e-06  Convergence criterion met
 ---------------------------------------
 SCF time:   CPU 125.41s  wall 126.00s 
 SCF   energy in the final basis set =    -1103.0207223341
 Total energy in the final basis set =    -1103.0207223341
 
 --------------------------------------------------------------
 
                    Orbital Energies (a.u.)
 --------------------------------------------------------------
 
 Alpha MOs
 -- Occupied --
-24.7479 -24.7370 -14.3803 -10.3601 -10.2362 -10.2163 -10.2162 -10.2113
-10.2070 -10.1991 -10.1970 -10.1968 -10.1961 -10.1829 -10.1827 -10.1824
-10.1822 -10.1803 -10.1799 -10.1785 -10.1784 -10.1783 -10.1781 -10.1743
-10.1741  -1.2884  -1.2274  -0.9989  -0.8801  -0.8520  -0.8493  -0.8149
 -0.7857  -0.7724  -0.7602  -0.7545  -0.7366  -0.7197  -0.6856  -0.6838
 -0.6453  -0.6311  -0.6277  -0.6142  -0.5835  -0.5788  -0.5752  -0.5683
 -0.5432  -0.5331  -0.5220  -0.5155  -0.4899  -0.4759  -0.4714  -0.4611
 -0.4520  -0.4474  -0.4440  -0.4397  -0.4350  -0.4330  -0.4288  -0.4270
 -0.4185  -0.4160  -0.4157  -0.4099  -0.4061  -0.3865  -0.3849  -0.3777
 -0.3741  -0.3583  -0.3547  -0.3514  -0.3410  -0.3333  -0.3271  -0.3261
 -0.2966  -0.2745  -0.2646  -0.2436  -0.2316  -0.2068  -0.1885
 -- Virtual --
 -0.0359  -0.0222  -0.0104   0.0148   0.0331   0.0447   0.0641   0.0818
  0.1030   0.1123   0.1151   0.1304   0.1326   0.1369   0.1389   0.1470
  0.1488   0.1549   0.1676   0.1711   0.1760   0.1794   0.1839   0.1939
  0.1954   0.1989   0.2066   0.2100   0.2146   0.2207   0.2308   0.2477
  0.2633   0.2779   0.2793   0.2949   0.3058   0.3084   0.3189   0.3267
  0.3400   0.3532   0.3667   0.3817   0.3883   0.4071   0.4096   0.4192
  0.4603   0.4747   0.4770   0.4864   0.4944   0.5073   0.5157   0.5183
  0.5241   0.5279   0.5308   0.5353   0.5399   0.5507   0.5536   0.5594
  0.5628   0.5662   0.5716   0.5769   0.5815   0.5846   0.5858   0.5877
  0.5918   0.5926   0.5966   0.5996   0.6090   0.6120   0.6239   0.6289
  0.6336   0.6434   0.6496   0.6510   0.6594   0.6679   0.6762   0.6895
  0.7022   0.7060   0.7184   0.7294   0.7321   0.7361   0.7670   0.7690
  0.7724   0.7918   0.8015   0.8026   0.8044   0.8098   0.8245   0.8330
  0.8379   0.8425   0.8521   0.8552   0.8610   0.8770   0.8802   0.8839
  0.8881   0.8951   0.8956   0.9091   0.9146   0.9223   0.9254   0.9371
  0.9516   0.9555   0.9665   0.9727   0.9808   0.9902   0.9989   1.0107
  1.0189   1.0340   1.0555   1.0617   1.0688   1.0755   1.1099   1.1290
  1.1303   1.1455   1.1557   1.1586   1.1590   1.1741   1.1810   1.1958
  1.2022   1.2084   1.2126   1.2199   1.2349   1.2378   1.2507   1.2687
  1.2839   1.2943   1.3284   1.3375   1.3388   1.3512   1.3669   1.3951
  1.3963   1.3993   1.4012   1.4114   1.4120   1.4362   1.4418   1.4447
  1.4494   1.4619   1.4682   1.4747   1.4804   1.4882   1.4997   1.5052
  1.5073   1.5163   1.5305   1.5573   1.6195   1.6230   1.6337   1.6711
  1.6864   1.7232   1.7314   1.7621   1.7687   1.7785   1.7796   1.7889
  1.7995   1.8176   1.8320   1.8337   1.8404   1.8510   1.8632   1.8678
  1.8773   1.8805   1.8904   1.8944   1.8979   1.9051   1.9094   1.9112
  1.9301   1.9483   1.9515   1.9570   1.9652   1.9705   1.9918   2.0050
  2.0130   2.0240   2.0305   2.0332   2.0544   2.0684   2.0812   2.0828
  2.1011   2.1132   2.1251   2.1333   2.1487   2.1540   2.1642   2.1719
  2.1790   2.2040   2.2150   2.2299   2.2354   2.2454   2.2513   2.2803
  2.2850   2.2937   2.3006   2.3143   2.3163   2.3325   2.3492   2.3524
  2.3583   2.3678   2.3925   2.3998   2.4013   2.4156   2.4242   2.4489
  2.4863   2.4895   2.5179   2.5313   2.5738   2.5817   2.5924   2.6124
  2.6274   2.6528   2.6603   2.6834   2.6885   2.7031   2.7330   2.7334
  2.7555   2.7679   2.7746   2.7903   2.7982   2.8042   2.8260   2.8628
  2.8854   2.9084   2.9146   2.9213   2.9433   2.9778   2.9924   3.0441
  3.0553   3.1418   3.1912   3.2674   3.3083   3.3850   3.4073   3.4958
  3.5736   4.0730   4.1029   4.1085   4.1180   4.1204   4.1281   4.1534
  4.1654   4.1751   4.2005   4.2643   4.2650   4.2860   4.3072   4.3447
  4.3978   4.4473   4.5009   4.5146   4.5421   4.7178   4.7790   4.8282
  4.8903   5.2851
 --------------------------------------------------------------
 
          Ground-State Mulliken Net Atomic Charges

     Atom                 Charge (a.u.)
  ----------------------------------------
      1 C                    -0.529958
      2 C                     0.170851
      3 C                    -0.260859
      4 C                     0.066842
      5 C                     0.066335
      6 C                    -0.261161
      7 C                     0.171395
      8 C                    -0.530153
      9 C                    -0.191205
     10 C                    -0.173559
     11 C                     0.308140
     12 N                    -0.738081
     13 C                     0.293357
     14 C                    -0.162676
     15 C                    -0.208912
     16 C                     0.204132
     17 C                    -0.299686
     18 C                     0.544070
     19 F                    -0.234676
     20 F                    -0.247701
     21 C                    -0.208974
     22 C                    -0.162199
     23 C                     0.307637
     24 C                    -0.173344
     25 C                    -0.191061
     26 H                     0.152356
     27 H                     0.159220
     28 H                     0.158688
     29 H                     0.121353
     30 H                     0.121382
     31 H                     0.152480
     32 H                     0.159002
     33 H                     0.158776
     34 H                     0.117040
     35 H                     0.137753
     36 H                     0.154161
     37 H                     0.144635
     38 H                     0.160760
     39 H                     0.134187
     40 H                     0.153662
     41 H                     0.138571
     42 H                     0.117420
  ----------------------------------------
  Sum of atomic charges =     0.000000

 -----------------------------------------------------------------
                    Cartesian Multipole Moments
 -----------------------------------------------------------------
    Charge (ESU x 10^10)
                 0.0000
    Dipole Moment (Debye)
         X       0.0920      Y       0.5145      Z      -0.5137
       Tot       0.7328
    Quadrupole Moments (Debye-Ang)
        XX    -139.3066     XY       2.4978     YY    -131.5448
        XZ      -3.2013     YZ      -2.9668     ZZ    -143.4082
    Octopole Moments (Debye-Ang^2)
       XXX      -1.5636    XXY      10.6621    XYY      20.8857
       YYY      -7.0675    XXZ      -7.8129    XYZ     -10.4049
       YYZ      -1.1263    XZZ      48.7748    YZZ       1.9139
       ZZZ       7.7294
    Hexadecapole Moments (Debye-Ang^3)
      XXXX  -10707.0688   XXXY      34.6749   XXYY   -2324.3773
      XYYY     -36.2475   YYYY   -3789.8399   XXXZ     -44.4235
      XXYZ     -23.9127   XYYZ      -1.5732   YYYZ      -1.1595
      XXZZ   -1821.2354   XYZZ       1.2345   YYZZ    -733.4979
      XZZZ      49.9622   YZZZ     -25.0938   ZZZZ    -361.3862
 -----------------------------------------------------------------
Archival summary:
1\1\nia2015.scinet.local\SP\ProcedureUnspecified\6-31G*\212217\rhickman\TueFeb816:31:232022TueFeb816:31:232022\0\\#,ProcedureUnspecified,6-31G*,\\0,1\N\C,1,1.38379\C,1,1.384,2,108.153\C,3,1.38734,1,129.905,2,176.798,0\H,4,1.0795,3,121.435,1,0.952889,0\C,4,1.38037,3,117.915,1,-178.191,0\H,6,1.0806,4,119.074,3,-179.789,0\C,2,1.38735,1,129.911,3,176.799,0\H,8,1.07957,2,121.42,1,0.87235,0\C,8,1.38041,2,117.926,1,-178.228,0\H,10,1.08064,8,119.084,2,-179.802,0\C,1,1.3948,2,125.956,3,179.78,0\C,12,1.3944,1,120.48,2,-47.7092,0\H,13,1.07941,12,119.541,1,-1.28204,0\C,13,1.37775,12,120.163,1,179.965,0\H,15,1.08022,13,119.398,12,179.682,0\C,12,1.3944,1,120.501,2,132.341,0\H,17,1.07936,12,119.383,1,-1.54083,0\C,17,1.3787,12,120.628,1,179.68,0\H,19,1.07748,17,118.889,12,179.68,0\C,19,1.39716,17,120.735,12,0.344211,0\C,10,1.39878,8,122.286,2,0.498644,0\C,22,1.38335,10,119.525,8,0.892571,0\H,23,1.08007,22,120.571,10,178.765,0\C,23,1.38869,22,119.367,10,-0.872438,0\C,6,1.39881,4,122.292,3,0.496458,0\C,26,1.38332,6,119.528,4,0.870272,0\H,27,1.08008,26,120.576,6,178.791,0\C,27,1.38874,26,119.361,6,-0.850545,0\C,21,1.4522,19,123.634,17,179.922,0\H,30,1.08066,21,116.456,19,-179.146,0\C,30,1.32539,21,128.582,19,0.997841,0\F,32,1.32826,30,128.128,21,-0.016016,0\F,32,1.33263,30,123.052,21,179.919,0\C,26,1.49993,6,119.38,4,-179.625,0\H,35,1.08695,26,110.962,6,-177.81,0\H,35,1.08941,26,110.494,6,-57.2634,0\H,35,1.08968,26,110.397,6,61.8162,0\C,22,1.49995,10,119.388,8,-179.615,0\H,39,1.08695,22,110.955,10,-177.942,0\H,39,1.08941,22,110.497,10,-57.4074,0\H,39,1.0897,22,110.407,10,61.6832,0\\\@

 Total job time:  126.32s(wall), 125.82s(cpu) 
 Tue Feb  8 16:31:23 2022

        *************************************************************
        *                                                           *
        *  Thank you very much for using Q-Chem.  Have a nice day.  *
        *                                                           *
        *************************************************************


