
Running Job 1 of 1 fragments/C146/conf-3/spe_input.inp
qchem fragments/C146/conf-3/spe_input.inp_150833.0 /gpfs/fs0/scratch/a/aspuru/rhickman/descriptor_computation/qchem150833/ 0
/scinet/niagara/software/commercial/qc52/exe/qcprog.exe_s fragments/C146/conf-3/spe_input.inp_150833.0 /gpfs/fs0/scratch/a/aspuru/rhickman/descriptor_computation/qchem150833/
                  Welcome to Q-Chem
     A Quantum Leap Into The Future Of Chemistry


 Q-Chem 5.2, Q-Chem, Inc., Pleasanton, CA (2019)

 License issued to: SRG Alan Aspuru-Guzik, University of Toronto

 Yihan Shao,  Zhengting Gan,  E. Epifanovsky,  A. T. B. Gilbert,  M. Wormit,  
 J. Kussmann,  A. W. Lange,  A. Behn,  Jia Deng,  Xintian Feng,  D. Ghosh,  
 M. Goldey,  P. R. Horn,  L. D. Jacobson,  I. Kaliman,  T. Kus,  A. Landau,  
 Jie Liu,  E. I. Proynov,  R. M. Richard,  R. P. Steele,  E. J. Sundstrom,  
 H. L. Woodcock III,  P. M. Zimmerman,  D. Zuev,  B. Albrecht,  E. Alguire,  
 S. A. Baeppler,  D. Barton,  Z. Benda,  Y. A. Bernard,  E. J. Berquist,  
 K. B. Bravaya,  H. Burton,  D. Casanova,  Chun-Min Chang,  Yunqing Chen,  
 A. Chien,  K. D. Closser,  M. P. Coons,  S. Coriani,  S. Dasgupta,  
 A. L. Dempwolff,  M. Diedenhofen,  Hainam Do,  R. G. Edgar,  Po-Tung Fang,  
 S. Faraji,  S. Fatehi,  Qingguo Feng,  K. D. Fenk,  J. Fosso-Tande,  
 J. Gayvert,  Qinghui Ge,  A. Ghysels,  G. Gidofalvi,  J. Gomes,  
 J. Gonthier,  A. Gunina,  D. Hait,  M. W. D. Hanson-Heine,  
 P. H. P. Harbach,  A. W. Hauser,  M. F. Herbst,  J. E. Herr,  
 E. G. Hohenstein,  Z. C. Holden,  Kerwin Hui,  B. C. Huynh,  T.-C. Jagau,  
 Hyunjun Ji,  B. Kaduk,  K. Khistyaev,  Jaehoon Kim,  P. Klunzinger,  K. Koh,  
 D. Kosenkov,  L. Koulias,  T. Kowalczyk,  C. M. Krauter,  A. Kunitsa,  
 Ka Un Lao,  A. Laurent,  K. V. Lawler,  Joonho Lee,  D. Lefrancois,  
 S. Lehtola,  D. S. Levine,  Yi-Pei Li,  You-Sheng Lin,  Fenglai Liu,  
 E. Livshits,  A. Luenser,  P. Manohar,  E. Mansoor,  S. F. Manzer,  
 Shan-Ping Mao,  Yuezhi Mao,  N. Mardirossian,  A. V. Marenich,  
 T. Markovich,  L. A. Martinez-Martinez,  S. A. Maurer,  N. J. Mayhall,  
 S. C. McKenzie,  J.-M. Mewes,  P. Morgante,  A. F. Morrison,  
 J. W. Mullinax,  K. Nanda,  T. S. Nguyen-Beck,  R. Olivares-Amaya,  
 J. A. Parkhill,  Zheng Pei,  T. M. Perrine,  F. Plasser,  P. Pokhilko,  
 S. Prager,  A. Prociuk,  E. Ramos,  D. R. Rehn,  F. Rob,  M. Scheurer,  
 M. Schneider,  N. Sergueev,  S. M. Sharada,  S. Sharma,  D. W. Small,  
 T. Stauch,  T. Stein,  Yu-Chuan Su,  A. J. W. Thom,  A. Tkatchenko,  
 T. Tsuchimochi,  N. M. Tubman,  L. Vogt,  M. L. Vidal,  O. Vydrov,  
 M. A. Watson,  J. Wenzel,  M. de Wergifosse,  T. A. Wesolowski,  A. White,  
 J. Witte,  A. Yamada,  Jun Yang,  K. Yao,  S. Yeganeh,  S. R. Yost,  
 Zhi-Qiang You,  A. Zech,  Igor Ying Zhang,  Xing Zhang,  Yan Zhao,  
 Ying Zhu,  B. R. Brooks,  G. K. L. Chan,  C. J. Cramer,  M. S. Gordon,  
 W. J. Hehre,  A. Klamt,  M. W. Schmidt,  C. D. Sherrill,  D. G. Truhlar,  
 A. Aspuru-Guzik,  R. Baer,  A. T. Bell,  N. A. Besley,  Jeng-Da Chai,  
 A. E. DePrince, III,  R. A. DiStasio Jr.,  A. Dreuw,  B. D. Dunietz,  
 T. R. Furlani,  Chao-Ping Hsu,  Yousung Jung,  Jing Kong,  D. S. Lambrecht,  
 WanZhen Liang,  C. Ochsenfeld,  V. A. Rassolov,  L. V. Slipchenko,  
 J. E. Subotnik,  T. Van Voorhis,  J. M. Herbert,  A. I. Krylov,  
 P. M. W. Gill,  M. Head-Gordon

 Contributors to earlier versions of Q-Chem not listed above: 
 R. D. Adamson,  B. Austin,  J. Baker,  G. J. O. Beran,  K. Brandhorst,  
 S. T. Brown,  E. F. C. Byrd,  A. K. Chakraborty,  C.-L. Cheng,  
 Siu Hung Chien,  D. M. Chipman,  D. L. Crittenden,  H. Dachsel,  
 R. J. Doerksen,  A. D. Dutoi,  L. Fusti-Molnar,  W. A. Goddard III,  
 A. Golubeva-Zadorozhnaya,  S. R. Gwaltney,  G. Hawkins,  A. Heyden,  
 S. Hirata,  G. Kedziora,  F. J. Keil,  C. Kelley,  Jihan Kim,  R. A. King,  
 R. Z. Khaliullin,  P. P. Korambath,  W. Kurlancheek,  A. M. Lee,  M. S. Lee,  
 S. V. Levchenko,  Ching Yeh Lin,  D. Liotard,  R. C. Lochan,  I. Lotan,  
 P. E. Maslen,  N. Nair,  D. P. O'Neill,  D. Neuhauser,  E. Neuscamman,  
 C. M. Oana,  R. Olson,  B. Peters,  R. Peverati,  P. A. Pieniazek,  
 Y. M. Rhee,  J. Ritchie,  M. A. Rohrdanz,  E. Rosta,  N. J. Russ,  
 H. F. Schaefer III,  N. E. Schultz,  N. Shenvi,  A. C. Simmonett,  A. Sodt,  
 D. Stuck,  K. S. Thanthiriwatte,  V. Vanovschi,  Tao Wang,  A. Warshel,  
 C. F. Williams,  Q. Wu,  X. Xu,  W. Zhang

 Please cite Q-Chem as follows:
 Y. Shao et al., Mol. Phys. 113, 184-215 (2015)
 DOI: 10.1080/00268976.2014.952696

 Q-Chem 5.2.1 for Intel X86 EM64T Linux

 Parts of Q-Chem use Armadillo 8.300.2 (Tropical Shenanigans).
 http://arma.sourceforge.net/

 Q-Chem begins on Mon Feb  7 17:39:36 2022  

Host: 
0

     Scratch files written to /gpfs/fs0/scratch/a/aspuru/rhickman/descriptor_computation/qchem150833//
 Jul1719 |scratch|qcdevops|jenkins|workspace|build_RNUM -1
Processing $rem in /scinet/niagara/software/commercial/qc52/config/preferences:
	 MEM_TOTAL  4000 
NAlpha2: 114
NElect   114
Mult     1

Checking the input file for inconsistencies... 	...done.

--------------------------------------------------------------
User input:
--------------------------------------------------------------
$molecule
0 1
C         5.57257161210000   -0.32336245520000   -0.28443306910000
C         4.35457014780000   -0.25761469850000   -0.81820248030000
C         3.12564210850000   -0.18378983690000   -0.07679142860000
C         2.90857913940000   -0.16681764740000    1.28049627750000
C         1.55810808640000   -0.08685239070000    1.63140425800000
C         0.71160593610000   -0.04079928940000    0.54532268540000
C        -0.71145177400000    0.04291877490000    0.54534989650000
C        -1.55744033400000    0.09686356460000    1.63148203500000
C        -2.90802687550000    0.17526332450000    1.28063782850000
C        -3.12567879560000    0.18311989140000   -0.07664399300000
C        -4.35483088940000    0.25306191280000   -0.81804175460000
C        -5.57251005300000    0.32486074910000   -0.28449422440000
S        -1.61661913570000    0.09138975910000   -0.93622189810000
S         1.61614103460000   -0.09851560010000   -0.93625944090000
H         6.45088691790000   -0.37639772950000   -0.90287531270000
H         5.73323182780000   -0.32624731110000    0.77959364790000
H         4.23896065330000   -0.25688365880000   -1.89444375830000
H         3.70279319250000   -0.21118755330000    2.00344778660000
H         1.20874087790000   -0.06323030160000    2.64770537750000
H        -1.20762196420000    0.07997066350000    2.64778408890000
H        -3.70193425350000    0.22485154010000    2.00362016080000
H        -4.23966842150000    0.24418513980000   -1.89421217690000
H        -5.73287266340000    0.33630303130000    0.77950247690000
H        -6.45087345140000    0.37447833150000   -0.90312912850000
$end

$rem
BASIS = 6-31G*
GUI = 2
METHOD = B3LYP
PRINT_ORBITALS false
MOLDEN_FORMAT false
--------------------------------------------------------------
 ----------------------------------------------------------------
             Standard Nuclear Orientation (Angstroms)
    I     Atom           X                Y                Z
 ----------------------------------------------------------------
    1      C       5.5819464714     0.3075809428     0.0033047789
    2      C       4.3621872280     0.8413727082    -0.0004178738
    3      C       3.1310407842     0.0999667222    -0.0008437203
    4      C       2.9133489164    -1.2573263712    -0.0009636258
    5      C       1.5605106683    -1.6082274640    -0.0010888211
    6      C       0.7127703272    -0.5221352637    -0.0010023599
    7      C      -0.7127477153    -0.5221553928    -0.0004814579
    8      C      -1.5604492887    -1.6082911230     0.0004799775
    9      C      -2.9133071441    -1.2574386251     0.0010573557
   10      C      -3.1310382429     0.0998531561     0.0005922765
   11      C      -4.3621726226     0.8412608036     0.0010781920
   12      C      -5.5819698413     0.3077216027    -0.0000406767
   13      S      -1.6191919505     0.9594285882    -0.0001246076
   14      S       1.6191411921     0.9594491478    -0.0010315271
   15      H       6.4618637274     0.9260199829     0.0036237033
   16      H       5.7424946517    -0.7564622196     0.0063563627
   17      H       4.2467387548     1.9176285387    -0.0029507471
   18      H       3.7087942870    -1.9802856494    -0.0012457175
   19      H       1.2103540730    -2.6245314362    -0.0011878241
   20      H      -1.2102475420    -2.6246015061     0.0007418295
   21      H      -3.7087598146    -1.9804225341     0.0018850873
   22      H      -4.2466817619     1.9174318047     0.0024222505
   23      H      -5.7427334535    -0.7562752137    -0.0014222129
   24      H      -6.4617280304     0.9263642810     0.0002311534
 ----------------------------------------------------------------
 Molecular Point Group                 C1    NOp =  1
 Largest Abelian Subgroup              C1    NOp =  1
 Nuclear Repulsion Energy =         984.47300376 hartrees
 There are       57 alpha and       57 beta electrons
 Requested basis set is 6-31G(d)
 There are 78 shells and 238 basis functions

 Total QAlloc Memory Limit   4000 MB
 Mega-Array Size       188 MB
 MEM_STATIC part       192 MB
 A cutoff of  1.0D-08 yielded   1740 shell pairs
 There are     17977 function pairs
 Smallest overlap matrix eigenvalue = 5.61E-04

 Scale SEOQF with 1.000000e-02/1.000000e-01/1.000000e+00

 Standard Electronic Orientation quadrupole field applied
 Nucleus-field energy     =     0.0000000130 hartrees
 Guess from superposition of atomic densities
 Warning:  Energy on first SCF cycle will be non-variational
 SAD guess density has 114.000000 electrons

 -----------------------------------------------------------------------
  General SCF calculation program by
  Eric Jon Sundstrom, Paul Horn, Yuezhi Mao, Dmitri Zuev, Alec White,
  David Stuck, Shaama M.S., Shane Yost, Joonho Lee, David Small,
  Daniel Levine, Susi Lehtola, Hugh Burton, Evgeny Epifanovsky,
  Bang C. Huynh
 -----------------------------------------------------------------------
 Exchange:     0.2000 Hartree-Fock + 0.0800 Slater + 0.7200 B88
 Correlation:  0.1900 VWN1RPA + 0.8100 LYP
 Using SG-1 standard quadrature grid
 A restricted SCF calculation will be
 performed using DIIS
 SCF converges when DIIS error is below 1.0e-05
 ---------------------------------------
  Cycle       Energy         DIIS error
 ---------------------------------------
    1   -1263.0953793812      5.24e-02  
    2   -1259.3574657685      5.72e-03  
    3   -1259.1136333216      7.83e-03  
    4   -1259.5923546261      1.58e-03  
    5   -1259.6128019939      4.79e-04  
    6   -1259.6140435036      2.48e-04  
    7   -1259.6144634378      9.16e-05  
    8   -1259.6145291821      2.26e-05  
    9   -1259.6145329813      3.70e-06  Convergence criterion met
 ---------------------------------------
 SCF time:   CPU 34.96s  wall 35.00s 
 SCF   energy in the final basis set =    -1259.6145329813
 Total energy in the final basis set =    -1259.6145329813
 
 --------------------------------------------------------------
 
                    Orbital Energies (a.u.)
 --------------------------------------------------------------
 
 Alpha MOs
 -- Occupied --
-88.9084 -88.9084 -10.2276 -10.2272 -10.2201 -10.2201 -10.2000 -10.2000
-10.1939 -10.1939 -10.1918 -10.1918 -10.1832 -10.1832  -7.9703  -7.9703
 -5.9342  -5.9342  -5.9307  -5.9307  -5.9272  -5.9272  -0.9030  -0.8818
 -0.8068  -0.7876  -0.7529  -0.7392  -0.7356  -0.6886  -0.6249  -0.6044
 -0.5973  -0.5440  -0.5386  -0.5129  -0.5071  -0.4904  -0.4638  -0.4356
 -0.4300  -0.4147  -0.4145  -0.4098  -0.3841  -0.3819  -0.3659  -0.3644
 -0.3614  -0.3569  -0.3368  -0.3229  -0.2903  -0.2625  -0.2527  -0.2382
 -0.1844
 -- Virtual --
 -0.0643  -0.0188  -0.0056   0.0161   0.0573   0.0716   0.0749   0.0968
  0.1084   0.1143   0.1170   0.1224   0.1249   0.1379   0.1571   0.1704
  0.1871   0.1983   0.1995   0.2180   0.2383   0.2435   0.2566   0.2776
  0.2894   0.3051   0.3232   0.3364   0.3414   0.3437   0.3904   0.3929
  0.3982   0.4242   0.4439   0.4455   0.4658   0.4824   0.4855   0.5013
  0.5215   0.5244   0.5313   0.5342   0.5686   0.5733   0.5863   0.5949
  0.5953   0.5976   0.6062   0.6114   0.6301   0.6359   0.6462   0.6574
  0.6741   0.6745   0.6763   0.6768   0.6948   0.6953   0.7703   0.7970
  0.7993   0.8164   0.8263   0.8355   0.8551   0.8570   0.8592   0.8681
  0.8686   0.8791   0.8804   0.8933   0.9117   0.9200   0.9325   0.9412
  0.9481   0.9564   0.9793   0.9846   0.9859   1.0141   1.0310   1.0424
  1.0427   1.0574   1.0840   1.1072   1.1354   1.1562   1.1630   1.2007
  1.2456   1.2639   1.2721   1.3098   1.3194   1.3257   1.3296   1.3493
  1.4013   1.4015   1.4397   1.4514   1.4632   1.4775   1.4792   1.5469
  1.5602   1.5988   1.6048   1.6264   1.6418   1.6840   1.7118   1.7224
  1.7481   1.8242   1.8436   1.8547   1.8703   1.9322   1.9633   1.9905
  2.0041   2.0381   2.0459   2.0791   2.0929   2.1036   2.1274   2.1417
  2.1560   2.1676   2.1913   2.2043   2.2411   2.2489   2.2522   2.2605
  2.2952   2.3570   2.3962   2.3996   2.4301   2.5003   2.5100   2.5222
  2.5563   2.5754   2.5848   2.6070   2.6604   2.6734   2.7445   2.8141
  2.8647   2.9138   3.0365   3.0421   3.1177   3.1314   3.2393   3.9300
  4.0059   4.0697   4.1032   4.1114   4.1351   4.1403   4.1689   4.2278
  4.2830   4.3615   4.5420   4.5454   4.5917
 --------------------------------------------------------------
 
          Ground-State Mulliken Net Atomic Charges

     Atom                 Charge (a.u.)
  ----------------------------------------
      1 C                    -0.341883
      2 C                    -0.092466
      3 C                    -0.120336
      4 C                    -0.133481
      5 C                    -0.109685
      6 C                    -0.162979
      7 C                    -0.162981
      8 C                    -0.109690
      9 C                    -0.133488
     10 C                    -0.120327
     11 C                    -0.092453
     12 C                    -0.341875
     13 S                     0.252353
     14 S                     0.252351
     15 H                     0.147663
     16 H                     0.142039
     17 H                     0.138508
     18 H                     0.140300
     19 H                     0.139971
     20 H                     0.139974
     21 H                     0.140303
     22 H                     0.138496
     23 H                     0.142030
     24 H                     0.147658
  ----------------------------------------
  Sum of atomic charges =     0.000000

 -----------------------------------------------------------------
                    Cartesian Multipole Moments
 -----------------------------------------------------------------
    Charge (ESU x 10^10)
                -0.0000
    Dipole Moment (Debye)
         X       0.0002      Y      -1.1933      Z       0.0011
       Tot       1.1933
    Quadrupole Moments (Debye-Ang)
        XX     -82.2410     XY      -0.0002     YY     -86.2970
        XZ       0.0025     YZ      -0.0037     ZZ    -101.8618
    Octopole Moments (Debye-Ang^2)
       XXX       0.0042    XXY       1.5354    XYY      -0.0003
       YYY      -8.1206    XXZ       0.0602    XYZ      -0.0376
       YYZ       0.0024    XZZ      -0.0011    YZZ       1.9570
       ZZZ      -0.0050
    Hexadecapole Moments (Debye-Ang^3)
      XXXX   -5274.1647   XXXY      -0.0180   XXYY    -972.8462
      XYYY       0.0008   YYYY    -642.7475   XXXZ       0.4772
      XXYZ      -0.0695   XYYZ      -0.0675   YYYZ      -0.0121
      XXZZ   -1094.7084   XYZZ      -0.0016   YYZZ    -145.2171
      XZZZ      -0.0113   YZZZ      -0.0087   ZZZZ    -112.7736
 -----------------------------------------------------------------
Archival summary:
1\1\nia1977.scinet.local\SP\ProcedureUnspecified\6-31G*\21210\rhickman\MonFeb717:40:122022MonFeb717:40:122022\0\\#,ProcedureUnspecified,6-31G*,\\0,1\S\C,1,1.73684\C,2,1.37777,1,110.57\H,3,1.07493,2,123.016,1,-179.994,0\C,3,1.39761,2,113.433,1,0.00952918,0\H,5,1.0749,3,123.192,2,-179.985,0\C,5,1.37464,3,113.653,2,-0.00293509,0\C,2,1.42552,1,121.457,3,179.98,0\C,8,1.37778,2,127.972,1,-179.954,0\H,9,1.07495,8,123.016,2,-0.0139824,0\C,9,1.39761,8,113.432,2,179.987,0\H,11,1.07492,9,123.194,8,-179.996,0\C,11,1.37464,9,113.652,8,-0.00178732,0\C,13,1.43714,11,130.17,9,-179.993,0\H,14,1.08235,13,114.932,11,179.889,0\C,14,1.33138,13,125.318,11,-0.114459,0\H,16,1.0755,14,121.261,13,-179.988,0\H,16,1.07607,14,122.217,13,0.00125261,0\C,7,1.43715,5,130.169,3,179.985,0\H,19,1.08243,7,114.934,5,179.852,0\C,19,1.33145,7,125.308,5,-0.17649,0\H,21,1.07551,19,121.264,7,-179.985,0\H,21,1.07609,19,122.216,7,0.00155057,0\S,8,1.73687,2,121.458,1,0.0106893,0\\\@

 Total job time:  35.36s(wall), 35.15s(cpu) 
 Mon Feb  7 17:40:12 2022

        *************************************************************
        *                                                           *
        *  Thank you very much for using Q-Chem.  Have a nice day.  *
        *                                                           *
        *************************************************************


