
Running Job 1 of 1 tidas/B050/conf-4/spe_input.inp
qchem tidas/B050/conf-4/spe_input.inp_239619.0 /home/a/aspuru/seifridm/acdc_laser/descriptor_computation/qchem239619/ 0
/gpfs/fs1/scinet/niagara/software/commercial/qc54/exe/qcprog.exe_s tidas/B050/conf-4/spe_input.inp_239619.0 /home/a/aspuru/seifridm/acdc_laser/descriptor_computation/qchem239619/
                  Welcome to Q-Chem
     A Quantum Leap Into The Future Of Chemistry


 Q-Chem 5.4, Q-Chem, Inc., Pleasanton, CA (2021)

 License issued to: SRG Alan Aspuru-Guzik, University of Toronto

 E. Epifanovsky,  A. T. B. Gilbert,  Xintian Feng,  Joonho Lee,  Yuezhi Mao,  
 N. Mardirossian,  P. Pokhilko,  A. White,  M. Wormit,  M. P. Coons,  
 A. L. Dempwolff,  Zhengting Gan,  D. Hait,  P. R. Horn,  L. D. Jacobson,  
 I. Kaliman,  J. Kussmann,  A. W. Lange,  Ka Un Lao,  D. S. Levine,  Jie Liu,  
 S. C. McKenzie,  A. F. Morrison,  K. Nanda,  F. Plasser,  D. R. Rehn,  
 M. L. Vidal,  Zhi-Qiang You,  Ying Zhu,  B. Alam,  B. Albrecht,  
 A. Aldossary,  E. Alguire,  J. H. Andersen,  D. Barton,  K. Begam,  A. Behn,  
 Y. A. Bernard,  E. J. Berquist,  H. Burton,  A. Carreras,  K. Carter-Fenk,  
 Romit Chakraborty,  A. D. Chien,  K. D. Closser,  V. Cofer-Shabica,  
 S. Dasgupta,  Jia Deng,  M. de Wergifosse,  M. Diedenhofen,  Hainam Do,  
 S. Ehlert,  Po-Tung Fang,  S. Fatehi,  Qingguo Feng,  T. Friedhoff,  
 J. Gayvert,  Qinghui Ge,  G. Gidofalvi,  M. Goldey,  J. Gomes,  
 C. Gonzalez-Espinoza,  S. Gulania,  A. Gunina,  M. W. D. Hanson-Heine,  
 P. H. P. Harbach,  A. W. Hauser,  M. F. Herbst,  M. Hernandez Vera,  
 M. Hodecker,  Z. C. Holden,  S. Houck,  Xunkun Huang,  Kerwin Hui,  
 B. C. Huynh,  M. Ivanov,  Hyunjun Ji,  Hanjie Jiang,  B. Kaduk,  S. Kaehler,  
 K. Khistyaev,  Jaehoon Kim,  P. Klunzinger,  Z. Koczor-Benda,  
 Joong Hoon Koh,  D. Kosenkov,  L. Koulias,  T. Kowalczyk,  C. M. Krauter,  
 K. Kue,  A. Kunitsa,  T. Kus,  A. Landau,  K. V. Lawler,  D. Lefrancois,  
 S. Lehtola,  Rain Li,  Yi-Pei Li,  Jiashu Liang,  M. Liebenthal,  
 Hung-Hsuan Lin,  You-Sheng Lin,  Fenglai Liu,  Kuan-Yu Liu,  
 M. Loipersberger,  A. Luenser,  A. Manjanath,  P. Manohar,  E. Mansoor,  
 S. F. Manzer,  Shan-Ping Mao,  A. V. Marenich,  T. Markovich,  S. Mason,  
 S. A. Maurer,  P. F. McLaughlin,  M. F. S. J. Menger,  J.-M. Mewes,  
 S. A. Mewes,  P. Morgante,  J. W. Mullinax,  K. J. Oosterbaan,  G. Paran,  
 Alexander C. Paul,  Suranjan K. Paul,  F. Pavosevic,  Zheng Pei,  S. Prager,  
 E. I. Proynov,  E. Ramos,  B. Rana,  A. E. Rask,  A. Rettig,  R. M. Richard,  
 F. Rob,  E. Rossomme,  T. Scheele,  M. Scheurer,  M. Schneider,  
 N. Sergueev,  S. M. Sharada,  W. Skomorowski,  D. W. Small,  C. J. Stein,  
 Yu-Chuan Su,  E. J. Sundstrom,  Zhen Tao,  J. Thirman,  T. Tsuchimochi,  
 N. M. Tubman,  S. P. Veccham,  O. Vydrov,  J. Wenzel,  J. Witte,  A. Yamada,  
 Kun Yao,  S. Yeganeh,  S. R. Yost,  A. Zech,  Igor Ying Zhang,  Xing Zhang,  
 Yu Zhang,  D. Zuev,  A. Aspuru-Guzik,  A. T. Bell,  N. A. Besley,  
 K. B. Bravaya,  B. R. Brooks,  D. Casanova,  Jeng-Da Chai,  S. Coriani,  
 C. J. Cramer,  A. E. DePrince, III,  R. A. DiStasio Jr.,  A. Dreuw,  
 B. D. Dunietz,  T. R. Furlani,  W. A. Goddard III,  S. Grimme,  
 S. Hammes-Schiffer,  T. Head-Gordon,  W. J. Hehre,  Chao-Ping Hsu,  
 T.-C. Jagau,  Yousung Jung,  A. Klamt,  Jing Kong,  D. S. Lambrecht,  
 WanZhen Liang,  N. J. Mayhall,  C. W. McCurdy,  J. B. Neaton,  T. Neudecker,  
 C. Ochsenfeld,  J. A. Parkhill,  R. Peverati,  V. A. Rassolov,  Yihan Shao,  
 L. V. Slipchenko,  R. P. Steele,  J. E. Subotnik,  A. J. W. Thom,  
 A. Tkatchenko,  D. G. Truhlar,  T. Van Voorhis,  T. A. Wesolowski,  
 K. B. Whaley,  H. L. Woodcock III,  P. M. Zimmerman,  S. Faraji,  
 P. M. W. Gill,  M. Head-Gordon,  J. M. Herbert,  A. I. Krylov

 Additional authors since Version 5.4.0: 
 Chandrima Chakravarty,  L. Cunha,  R. Kang,  Yongbin Kim,  S. Kotaru,  
 Shaozhi Li,  Xiangyuan Li,  F. Matz,  A. Molle,  V. Parravicini,  
 Haisheng Ren,  Hengyuan Shen,  Yingli Su,  Hung-Yi Tsai,  C. Utku,  
 Fang Wang,  Jeff Yang,  F. Zeller

 Contributors to earlier versions of Q-Chem not listed above: 
 R. D. Adamson,  B. Austin,  R. Baer,  J. Baker,  G. J. O. Beran,  
 K. Brandhorst,  S. T. Brown,  E. F. C. Byrd,  Arup K. Chakraborty,  
 G. K. L. Chan,  Chun-Min Chang,  Yunqing Chen,  C.-L. Cheng,  
 Siu Hung Chien,  D. M. Chipman,  D. L. Crittenden,  H. Dachsel,  
 R. J. Doerksen,  A. D. Dutoi,  R. G. Edgar,  J. Fosso-Tande,  
 L. Fusti-Molnar,  D. Ghosh,  A. Ghysels,  A. Golubeva-Zadorozhnaya,  
 J. Gonthier,  M. S. Gordon,  S. R. Gwaltney,  G. Hawkins,  J. E. Herr,  
 A. Heyden,  S. Hirata,  E. G. Hohenstein,  G. Kedziora,  F. J. Keil,  
 C. Kelley,  Jihan Kim,  R. A. King,  R. Z. Khaliullin,  P. P. Korambath,  
 W. Kurlancheek,  A. Laurent,  A. M. Lee,  M. S. Lee,  S. V. Levchenko,  
 Ching Yeh Lin,  D. Liotard,  E. Livshits,  R. C. Lochan,  I. Lotan,  
 L. A. Martinez-Martinez,  P. E. Maslen,  N. Nair,  D. P. O'Neill,  
 D. Neuhauser,  E. Neuscamman,  C. M. Oana,  R. Olivares-Amaya,  R. Olson,  
 T. M. Perrine,  B. Peters,  P. A. Pieniazek,  A. Prociuk,  Y. M. Rhee,  
 J. Ritchie,  M. A. Rohrdanz,  E. Rosta,  N. J. Russ,  H. F. Schaefer III,  
 M. W. Schmidt,  N. E. Schultz,  S. Sharma,  N. Shenvi,  C. D. Sherrill,  
 A. C. Simmonett,  A. Sodt,  T. Stein,  D. Stuck,  K. S. Thanthiriwatte,  
 V. Vanovschi,  L. Vogt,  Tao Wang,  A. Warshel,  M. A. Watson,  
 C. F. Williams,  Q. Wu,  X. Xu,  Jun Yang,  W. Zhang,  Yan Zhao

   Please cite Q-Chem as follows:
  "Software for the frontiers of quantum chemistry:
   An overview of developments in the Q-Chem 5 package"
   J. Chem. Phys. 155, 084801 (2021)
   https://doi.org/10.1063/5.0055522 (open access)

 Q-Chem 5.4.2 for Intel X86 EM64T Linux

 Parts of Q-Chem use Armadillo 9.900.5 (Nocturnal Misbehaviour).
 http://arma.sourceforge.net/

 Q-Chem begins on Fri Aug 12 12:43:23 2022  

 Host: 
0

     Scratch files written to /home/a/aspuru/seifridm/acdc_laser/descriptor_computation/qchem239619//
 Dec1321 |scratch|qcdevops|jenkins|workspace|build_RNUM 6959   
 Processing $rem in /gpfs/fs1/scinet/niagara/software/commercial/qc54/config/preferences:
 Processing $rem in /home/a/aspuru/seifridm/.qchemrc:

 Checking the input file for inconsistencies... 	...done.

--------------------------------------------------------------
User input:
--------------------------------------------------------------
$molecule
0 1
C            0.20972575180000        4.06315848900000       -0.11718743120000
C           -0.69990870690000        3.09669125640000       -0.12357320730000
C           -0.44379822820000        1.66069779800000       -0.06584330880000
C           -1.53431805140000        0.79143278730000       -0.03219372200000
C           -1.36593683520000       -0.59139376120000        0.02522625100000
C           -2.47334179650000       -1.53536106070000        0.06320120990000
C           -3.77343915830000       -1.28255067770000        0.05132540800000
F           -4.37698222890000       -0.10100840930000        0.00147894270000
F           -4.70068465830000       -2.23596911540000        0.09001227800000
C           -0.07031588920000       -1.10400281910000        0.04745532950000
C            1.02596222580000       -0.25071795150000        0.01230699790000
C            2.38158445170000       -0.85894667190000        0.03705196010000
O            2.58851267170000       -2.04750826010000        0.08802970090000
O            3.35644468060000        0.05466317410000       -0.00396833910000
C            4.69265151490000       -0.44874757040000        0.01487077380000
C            5.64784152040000        0.72556544860000       -0.08124530790000
C            0.84291954450000        1.12465040210000       -0.04421144540000
H           -0.07817610470000        5.09933457140000       -0.16155743880000
H            1.26760607850000        3.87107019660000       -0.06628718870000
H           -1.74845717990000        3.36287662400000       -0.17193225370000
H           -2.52663613320000        1.21336428080000       -0.05052824820000
H           -2.20804761420000       -2.58169519280000        0.10705354530000
H            0.10671394730000       -2.16798566310000        0.09138397320000
H            4.82128339180000       -1.13999671530000       -0.82575644930000
H            4.84389659610000       -1.01288590570000        0.94225543790000
H            5.47533287550000        1.27443253060000       -1.00323059350000
H            6.67188367420000        0.36425601050000       -0.06952664390000
H            5.49926845240000        1.39936966070000        0.75836775330000
H            1.70809709040000        1.76557883410000       -0.07309066000000
$end

$rem
BASIS = 6-31G*
GUI = 2
METHOD = B3LYP
PRINT_ORBITALS false
MOLDEN_FORMAT false
$end
--------------------------------------------------------------
 ----------------------------------------------------------------
             Standard Nuclear Orientation (Angstroms)
    I     Atom           X                Y                Z
 ----------------------------------------------------------------
    1      C       0.5951019612    -3.9660694700    -0.0324887733
    2      C      -0.4315119640    -3.1260272421     0.0114138718
    3      C      -0.3631481486    -1.6678443676     0.0057903205
    4      C      -1.5568768207    -0.9460419422     0.0065347943
    5      C      -1.5686484526     0.4481137528    -0.0005275891
    6      C      -2.7887853313     1.2419194376    -0.0013277632
    7      C      -4.0453054902     0.8230718802     0.0042479330
    8      F      -4.4910630752    -0.4275396738     0.0121191765
    9      F      -5.0880157994     1.6495344205     0.0026702334
   10      C      -0.3501454347     1.1242094805    -0.0069132083
   11      C       0.8472428706     0.4189324683    -0.0055871897
   12      C       2.1128951062     1.1976236356    -0.0111183097
   13      O       2.1644466854     2.4040139952    -0.0189542673
   14      O       3.1977036384     0.4166749428    -0.0058581415
   15      C       4.4576626319     1.0887743225    -0.0092863199
   16      C       5.5569739845     0.0449492587     0.0415182124
   17      C       0.8435076584    -0.9696932092     0.0008813254
   18      H       0.4435558498    -5.0316687129    -0.0254830614
   19      H       1.6189917296    -3.6372676666    -0.0787342979
   20      H      -1.4366096968    -3.5269603288     0.0523816036
   21      H      -2.4863392101    -1.4929705738     0.0116586965
   22      H      -2.6609639691     2.3146468364    -0.0073919031
   23      H      -0.3121257706     2.2030307310    -0.0122043114
   24      H       4.5019566135     1.7600761235     0.8558250044
   25      H       4.5283889216     1.7007961967    -0.9157059074
   26      H       5.4631549103    -0.5544904526     0.9431507245
   27      H       6.5257593698     0.5356613885     0.0407101984
   28      H       5.4906631060    -0.6116768615    -0.8218943025
   29      H       1.7843000039    -1.4941489351     0.0042583122
 ----------------------------------------------------------------
 Molecular Point Group                 C1    NOp =  1
 Largest Abelian Subgroup              C1    NOp =  1
 Nuclear Repulsion Energy =        1127.57892630 hartrees
 There are       62 alpha and       62 beta electrons
 Requested basis set is 6-31G(d)
 There are 92 shells and 279 basis functions

 Total QAlloc Memory Limit   8000 MB
 Mega-Array Size       188 MB
 MEM_STATIC part       192 MB
 A cutoff of  1.0D-08 yielded   2267 shell pairs
 There are     22491 function pairs
 Smallest overlap matrix eigenvalue = 3.55E-04

 Scale SEOQF with 1.000000e-02/1.000000e-01/1.000000e+00

 Standard Electronic Orientation quadrupole field applied
 Nucleus-field energy     =     0.0000000271 hartrees
 Guess from superposition of atomic densities
 Warning:  Energy on first SCF cycle will be non-variational
 SAD guess density has 124.000000 electrons

 -----------------------------------------------------------------------
  General SCF calculation program by
  Eric Jon Sundstrom, Paul Horn, Yuezhi Mao, Dmitri Zuev, Alec White,
  David Stuck, Shaama M.S., Shane Yost, Joonho Lee, David Small,
  Daniel Levine, Susi Lehtola, Hugh Burton, Evgeny Epifanovsky,
  Bang C. Huynh
 -----------------------------------------------------------------------
 Exchange:     0.2000 Hartree-Fock + 0.0800 Slater + 0.7200 B88
 Correlation:  0.1900 VWN1RPA + 0.8100 LYP
 Using SG-1 standard quadrature grid
 A restricted SCF calculation will be
 performed using DIIS
 SCF converges when DIIS error is below 1.0e-05
 ---------------------------------------
  Cycle       Energy         DIIS error
 ---------------------------------------
    1    -856.4396935211      4.80e-02  
    2    -852.4019323563      5.84e-03  
    3    -852.0406955273      8.90e-03  
    4    -852.6831912327      1.91e-03  
    5    -852.7102976845      6.57e-04  
    6    -852.7132707885      2.49e-04  
    7    -852.7138119866      5.54e-05  
    8    -852.7138368660      1.90e-05  
    9    -852.7138412016      6.41e-06  Convergence criterion met
 ---------------------------------------
 SCF time:   CPU 80.15s  wall 90.00s 
 SCF   energy in the final basis set =     -852.7138412016
 Total energy in the final basis set =     -852.7138412016
 
 --------------------------------------------------------------
 
                    Orbital Energies (a.u.)
 --------------------------------------------------------------
 
 Alpha MOs
 -- Occupied --
-24.7488 -24.7379 -19.1926 -19.1324 -10.3613 -10.3134 -10.2448 -10.2136
-10.2067 -10.2048 -10.2045 -10.1976 -10.1971 -10.1970 -10.1959 -10.1864
-10.1858  -1.2900  -1.2287  -1.1100  -1.0168  -0.8808  -0.8213  -0.8031
 -0.7790  -0.7518  -0.7346  -0.6697  -0.6535  -0.6309  -0.6209  -0.5859
 -0.5747  -0.5560  -0.5363  -0.5233  -0.5129  -0.5008  -0.4981  -0.4706
 -0.4616  -0.4539  -0.4449  -0.4448  -0.4382  -0.4304  -0.4208  -0.4120
 -0.4039  -0.3988  -0.3905  -0.3773  -0.3651  -0.3612  -0.3557  -0.3466
 -0.3250  -0.3018  -0.2897  -0.2735  -0.2408  -0.2243
 -- Virtual --
 -0.0477  -0.0417   0.0045   0.0805   0.0869   0.0882   0.0986   0.1096
  0.1164   0.1326   0.1471   0.1493   0.1530   0.1601   0.1732   0.1746
  0.1857   0.1880   0.1970   0.2067   0.2228   0.2278   0.2699   0.2794
  0.2997   0.3006   0.3168   0.3241   0.3617   0.3876   0.4164   0.4284
  0.4481   0.4872   0.4886   0.5092   0.5152   0.5275   0.5301   0.5315
  0.5368   0.5381   0.5456   0.5557   0.5613   0.5659   0.5703   0.5801
  0.5879   0.5896   0.6051   0.6075   0.6193   0.6355   0.6597   0.6635
  0.6650   0.6800   0.6936   0.7034   0.7497   0.7510   0.7720   0.7734
  0.7762   0.7944   0.8124   0.8190   0.8278   0.8494   0.8606   0.8703
  0.8795   0.8851   0.8938   0.9068   0.9180   0.9364   0.9505   0.9551
  0.9632   0.9878   0.9960   1.0001   1.0036   1.0238   1.0622   1.0721
  1.1003   1.1104   1.1210   1.1308   1.1569   1.1676   1.1757   1.2111
  1.2153   1.2331   1.2481   1.2773   1.2909   1.3011   1.3147   1.3149
  1.3386   1.3592   1.3691   1.3746   1.4001   1.4084   1.4391   1.4527
  1.4566   1.4650   1.4789   1.4988   1.5048   1.5110   1.5221   1.5472
  1.5906   1.6447   1.6593   1.6705   1.6858   1.7111   1.7286   1.7576
  1.7710   1.7780   1.7883   1.8010   1.8192   1.8293   1.8330   1.8680
  1.8787   1.8869   1.8906   1.8958   1.9079   1.9388   1.9443   1.9606
  1.9773   1.9788   1.9886   2.0091   2.0227   2.0249   2.0381   2.0680
  2.1084   2.1101   2.1382   2.1408   2.1576   2.1627   2.1731   2.1923
  2.2053   2.2339   2.2419   2.2697   2.3027   2.3180   2.3203   2.3385
  2.3453   2.3463   2.4002   2.4207   2.4785   2.5195   2.5307   2.5329
  2.5414   2.6049   2.6076   2.6204   2.6362   2.6645   2.6695   2.6828
  2.7367   2.7789   2.7880   2.8481   2.8600   2.8857   2.9261   2.9749
  2.9868   3.0465   3.1070   3.1573   3.1817   3.2187   3.3359   3.4894
  3.9868   4.0740   4.0864   4.1104   4.1293   4.1450   4.1890   4.2352
  4.2598   4.3246   4.4034   4.4655   4.5024   4.5794   4.7364   4.8324
  5.3021
 --------------------------------------------------------------
 
          Ground-State Mulliken Net Atomic Charges

     Atom                 Charge (a.u.)
  ----------------------------------------
      1 C                    -0.352184
      2 C                    -0.111068
      3 C                     0.179237
      4 C                    -0.264450
      5 C                     0.194954
      6 C                    -0.295278
      7 C                     0.545992
      8 F                    -0.233670
      9 F                    -0.245605
     10 C                    -0.233010
     11 C                     0.046559
     12 C                     0.605290
     13 O                    -0.492491
     14 O                    -0.470580
     15 C                    -0.033371
     16 C                    -0.462622
     17 C                    -0.223035
     18 H                     0.147582
     19 H                     0.147059
     20 H                     0.130748
     21 H                     0.142542
     22 H                     0.166312
     23 H                     0.160041
     24 H                     0.159952
     25 H                     0.158545
     26 H                     0.161989
     27 H                     0.156403
     28 H                     0.161603
     29 H                     0.152555
  ----------------------------------------
  Sum of atomic charges =     0.000000

 -----------------------------------------------------------------
                    Cartesian Multipole Moments
 -----------------------------------------------------------------
    Charge (ESU x 10^10)
                 0.0000
    Dipole Moment (Debye)
         X       1.4037      Y      -1.6724      Z       0.0165
       Tot       2.1835
    Quadrupole Moments (Debye-Ang)
        XX     -86.1811     XY      -2.0266     YY     -96.4211
        XZ      -0.0570     YZ       0.0504     ZZ     -97.6819
    Octopole Moments (Debye-Ang^2)
       XXX      60.9812    XXY       4.9235    XYY     -30.3922
       YYY     -15.6116    XXZ      -0.0128    XYZ       0.6262
       YYZ       0.1823    XZZ     -11.8836    YZZ      13.5392
       ZZZ       0.0973
    Hexadecapole Moments (Debye-Ang^3)
      XXXX   -4993.9561   XXXY      98.9821   XXYY   -1176.3411
      XYYY     -76.2404   YYYY   -1731.1407   XXXZ      -0.7591
      XXYZ       0.6201   XYYZ      -1.2346   YYYZ       0.5469
      XXZZ    -872.1884   XYZZ      -1.9304   YYZZ    -338.5354
      XZZZ      -0.7778   YZZZ      -0.5960   ZZZZ    -104.8203
 -----------------------------------------------------------------
 Total job time:  92.03s(wall), 80.70s(cpu) 
 Fri Aug 12 12:44:55 2022

        *************************************************************
        *                                                           *
        *  Thank you very much for using Q-Chem.  Have a nice day.  *
        *                                                           *
        *************************************************************


