
Running Job 1 of 1 fragments/C133/conf-2/spe_input.inp
qchem fragments/C133/conf-2/spe_input.inp_142820.0 /gpfs/fs0/scratch/a/aspuru/rhickman/descriptor_computation/qchem142820/ 0
/scinet/niagara/software/commercial/qc52/exe/qcprog.exe_s fragments/C133/conf-2/spe_input.inp_142820.0 /gpfs/fs0/scratch/a/aspuru/rhickman/descriptor_computation/qchem142820/
                  Welcome to Q-Chem
     A Quantum Leap Into The Future Of Chemistry


 Q-Chem 5.2, Q-Chem, Inc., Pleasanton, CA (2019)

 License issued to: SRG Alan Aspuru-Guzik, University of Toronto

 Yihan Shao,  Zhengting Gan,  E. Epifanovsky,  A. T. B. Gilbert,  M. Wormit,  
 J. Kussmann,  A. W. Lange,  A. Behn,  Jia Deng,  Xintian Feng,  D. Ghosh,  
 M. Goldey,  P. R. Horn,  L. D. Jacobson,  I. Kaliman,  T. Kus,  A. Landau,  
 Jie Liu,  E. I. Proynov,  R. M. Richard,  R. P. Steele,  E. J. Sundstrom,  
 H. L. Woodcock III,  P. M. Zimmerman,  D. Zuev,  B. Albrecht,  E. Alguire,  
 S. A. Baeppler,  D. Barton,  Z. Benda,  Y. A. Bernard,  E. J. Berquist,  
 K. B. Bravaya,  H. Burton,  D. Casanova,  Chun-Min Chang,  Yunqing Chen,  
 A. Chien,  K. D. Closser,  M. P. Coons,  S. Coriani,  S. Dasgupta,  
 A. L. Dempwolff,  M. Diedenhofen,  Hainam Do,  R. G. Edgar,  Po-Tung Fang,  
 S. Faraji,  S. Fatehi,  Qingguo Feng,  K. D. Fenk,  J. Fosso-Tande,  
 J. Gayvert,  Qinghui Ge,  A. Ghysels,  G. Gidofalvi,  J. Gomes,  
 J. Gonthier,  A. Gunina,  D. Hait,  M. W. D. Hanson-Heine,  
 P. H. P. Harbach,  A. W. Hauser,  M. F. Herbst,  J. E. Herr,  
 E. G. Hohenstein,  Z. C. Holden,  Kerwin Hui,  B. C. Huynh,  T.-C. Jagau,  
 Hyunjun Ji,  B. Kaduk,  K. Khistyaev,  Jaehoon Kim,  P. Klunzinger,  K. Koh,  
 D. Kosenkov,  L. Koulias,  T. Kowalczyk,  C. M. Krauter,  A. Kunitsa,  
 Ka Un Lao,  A. Laurent,  K. V. Lawler,  Joonho Lee,  D. Lefrancois,  
 S. Lehtola,  D. S. Levine,  Yi-Pei Li,  You-Sheng Lin,  Fenglai Liu,  
 E. Livshits,  A. Luenser,  P. Manohar,  E. Mansoor,  S. F. Manzer,  
 Shan-Ping Mao,  Yuezhi Mao,  N. Mardirossian,  A. V. Marenich,  
 T. Markovich,  L. A. Martinez-Martinez,  S. A. Maurer,  N. J. Mayhall,  
 S. C. McKenzie,  J.-M. Mewes,  P. Morgante,  A. F. Morrison,  
 J. W. Mullinax,  K. Nanda,  T. S. Nguyen-Beck,  R. Olivares-Amaya,  
 J. A. Parkhill,  Zheng Pei,  T. M. Perrine,  F. Plasser,  P. Pokhilko,  
 S. Prager,  A. Prociuk,  E. Ramos,  D. R. Rehn,  F. Rob,  M. Scheurer,  
 M. Schneider,  N. Sergueev,  S. M. Sharada,  S. Sharma,  D. W. Small,  
 T. Stauch,  T. Stein,  Yu-Chuan Su,  A. J. W. Thom,  A. Tkatchenko,  
 T. Tsuchimochi,  N. M. Tubman,  L. Vogt,  M. L. Vidal,  O. Vydrov,  
 M. A. Watson,  J. Wenzel,  M. de Wergifosse,  T. A. Wesolowski,  A. White,  
 J. Witte,  A. Yamada,  Jun Yang,  K. Yao,  S. Yeganeh,  S. R. Yost,  
 Zhi-Qiang You,  A. Zech,  Igor Ying Zhang,  Xing Zhang,  Yan Zhao,  
 Ying Zhu,  B. R. Brooks,  G. K. L. Chan,  C. J. Cramer,  M. S. Gordon,  
 W. J. Hehre,  A. Klamt,  M. W. Schmidt,  C. D. Sherrill,  D. G. Truhlar,  
 A. Aspuru-Guzik,  R. Baer,  A. T. Bell,  N. A. Besley,  Jeng-Da Chai,  
 A. E. DePrince, III,  R. A. DiStasio Jr.,  A. Dreuw,  B. D. Dunietz,  
 T. R. Furlani,  Chao-Ping Hsu,  Yousung Jung,  Jing Kong,  D. S. Lambrecht,  
 WanZhen Liang,  C. Ochsenfeld,  V. A. Rassolov,  L. V. Slipchenko,  
 J. E. Subotnik,  T. Van Voorhis,  J. M. Herbert,  A. I. Krylov,  
 P. M. W. Gill,  M. Head-Gordon

 Contributors to earlier versions of Q-Chem not listed above: 
 R. D. Adamson,  B. Austin,  J. Baker,  G. J. O. Beran,  K. Brandhorst,  
 S. T. Brown,  E. F. C. Byrd,  A. K. Chakraborty,  C.-L. Cheng,  
 Siu Hung Chien,  D. M. Chipman,  D. L. Crittenden,  H. Dachsel,  
 R. J. Doerksen,  A. D. Dutoi,  L. Fusti-Molnar,  W. A. Goddard III,  
 A. Golubeva-Zadorozhnaya,  S. R. Gwaltney,  G. Hawkins,  A. Heyden,  
 S. Hirata,  G. Kedziora,  F. J. Keil,  C. Kelley,  Jihan Kim,  R. A. King,  
 R. Z. Khaliullin,  P. P. Korambath,  W. Kurlancheek,  A. M. Lee,  M. S. Lee,  
 S. V. Levchenko,  Ching Yeh Lin,  D. Liotard,  R. C. Lochan,  I. Lotan,  
 P. E. Maslen,  N. Nair,  D. P. O'Neill,  D. Neuhauser,  E. Neuscamman,  
 C. M. Oana,  R. Olson,  B. Peters,  R. Peverati,  P. A. Pieniazek,  
 Y. M. Rhee,  J. Ritchie,  M. A. Rohrdanz,  E. Rosta,  N. J. Russ,  
 H. F. Schaefer III,  N. E. Schultz,  N. Shenvi,  A. C. Simmonett,  A. Sodt,  
 D. Stuck,  K. S. Thanthiriwatte,  V. Vanovschi,  Tao Wang,  A. Warshel,  
 C. F. Williams,  Q. Wu,  X. Xu,  W. Zhang

 Please cite Q-Chem as follows:
 Y. Shao et al., Mol. Phys. 113, 184-215 (2015)
 DOI: 10.1080/00268976.2014.952696

 Q-Chem 5.2.1 for Intel X86 EM64T Linux

 Parts of Q-Chem use Armadillo 8.300.2 (Tropical Shenanigans).
 http://arma.sourceforge.net/

 Q-Chem begins on Mon Feb  7 17:17:55 2022  

Host: 
0

     Scratch files written to /gpfs/fs0/scratch/a/aspuru/rhickman/descriptor_computation/qchem142820//
 Jul1719 |scratch|qcdevops|jenkins|workspace|build_RNUM -1
Processing $rem in /scinet/niagara/software/commercial/qc52/config/preferences:
	 MEM_TOTAL  4000 
NAlpha2: 72
NElect   72
Mult     1

Checking the input file for inconsistencies... 	...done.

--------------------------------------------------------------
User input:
--------------------------------------------------------------
$molecule
0 1
C         2.81526306280000    0.77164810140000    0.44085071560000
C         2.21351784980000   -0.25862483490000   -0.13832348770000
C         0.79182972400000   -0.52636142670000   -0.12789328270000
N         0.35619375350000   -1.80080966100000   -0.26744868070000
N        -0.91393062980000   -1.84078793420000   -0.15787727430000
N        -1.36699612330000   -0.61213064270000    0.05792124590000
C        -2.76899251210000   -0.35938071480000    0.20199275530000
C        -0.33572331530000    0.27830485540000    0.07651338670000
C        -0.56448076280000    1.69665736960000    0.22554769520000
C         0.16976509180000    2.64387460430000   -0.34442887180000
H         3.88628197470000    0.87638230850000    0.41919152750000
H         2.26807681380000    1.53627450110000    0.96603668560000
H         2.78988685370000   -1.03654175760000   -0.62068532010000
H        -3.28294501320000   -1.31058440530000    0.07792184960000
H        -3.11289206490000    0.34481196440000   -0.55769792490000
H        -2.98930365190000    0.04422392400000    1.19254898860000
H        -1.42792528010000    1.96504666930000    0.82301213320000
H         1.01340749610000    2.40686912780000   -0.96936898390000
H        -0.05789690400000    3.68683502040000   -0.20848275390000
$end

$rem
BASIS = 6-31G*
GUI = 2
METHOD = B3LYP
PRINT_ORBITALS false
MOLDEN_FORMAT false
--------------------------------------------------------------
 ----------------------------------------------------------------
             Standard Nuclear Orientation (Angstroms)
    I     Atom           X                Y                Z
 ----------------------------------------------------------------
    1      C       2.8908726207     0.3163685326    -0.4478576127
    2      C       1.9625418633     1.0902391316     0.0983371175
    3      C       0.5384530990     0.8353683206     0.0992644587
    4      N      -0.3214066119     1.8770915632     0.1937455322
    5      N      -1.5229379614     1.4589794669     0.1025052142
    6      N      -1.5101139680     0.1413639276    -0.0561167216
    7      C      -2.7309555684    -0.5984255461    -0.1678768275
    8      C      -0.2298228068    -0.3251090563    -0.0546516182
    9      C       0.0600719622    -1.7373875714    -0.1423754352
   10      C       1.0829805086    -2.3366762025     0.4540489054
   11      H       3.9292635704     0.5995298796    -0.4387049496
   12      H       2.6508417955    -0.6147391286    -0.9329455959
   13      H       2.2251241938     2.0422507497     0.5396457433
   14      H      -3.5492196592     0.1129511611    -0.0745157973
   15      H      -2.8021775830    -1.3450557117     0.6250638902
   16      H      -2.7937374346    -1.0966311956    -1.1376628463
   17      H      -0.6518620609    -2.3204144073    -0.7148810339
   18      H       1.7875554732    -1.7887902193     1.0555880267
   19      H       1.2405714230    -3.3974114834     0.3641404609
 ----------------------------------------------------------------
 Molecular Point Group                 C1    NOp =  1
 Largest Abelian Subgroup              C1    NOp =  1
 Nuclear Repulsion Energy =         504.56190266 hartrees
 There are       36 alpha and       36 beta electrons
 Requested basis set is 6-31G(d)
 There are 58 shells and 168 basis functions

 Total QAlloc Memory Limit   4000 MB
 Mega-Array Size       188 MB
 MEM_STATIC part       192 MB
 A cutoff of  1.0D-08 yielded   1347 shell pairs
 There are     12494 function pairs
 Smallest overlap matrix eigenvalue = 7.31E-04

 Scale SEOQF with 1.000000e-01/1.000000e-01/1.000000e+00

 Standard Electronic Orientation quadrupole field applied
 Nucleus-field energy     =     0.0000000088 hartrees
 Guess from superposition of atomic densities
 Warning:  Energy on first SCF cycle will be non-variational
 SAD guess density has 72.000000 electrons

 -----------------------------------------------------------------------
  General SCF calculation program by
  Eric Jon Sundstrom, Paul Horn, Yuezhi Mao, Dmitri Zuev, Alec White,
  David Stuck, Shaama M.S., Shane Yost, Joonho Lee, David Small,
  Daniel Levine, Susi Lehtola, Hugh Burton, Evgeny Epifanovsky,
  Bang C. Huynh
 -----------------------------------------------------------------------
 Exchange:     0.2000 Hartree-Fock + 0.0800 Slater + 0.7200 B88
 Correlation:  0.1900 VWN1RPA + 0.8100 LYP
 Using SG-1 standard quadrature grid
 A restricted SCF calculation will be
 performed using DIIS
 SCF converges when DIIS error is below 1.0e-05
 ---------------------------------------
  Cycle       Energy         DIIS error
 ---------------------------------------
    1    -438.7476532421      6.45e-02  
    2    -436.1894387355      6.23e-03  
    3    -436.1032011546      8.22e-03  
    4    -436.3129990207      2.57e-03  
    5    -436.3337688042      5.20e-04  
    6    -436.3344276124      2.58e-04  
    7    -436.3346736244      6.59e-05  
    8    -436.3346873623      2.26e-05  
    9    -436.3346890427      3.24e-06  Convergence criterion met
 ---------------------------------------
 SCF time:   CPU 19.01s  wall 19.00s 
 SCF   energy in the final basis set =     -436.3346890427
 Total energy in the final basis set =     -436.3346890427
 
 --------------------------------------------------------------
 
                    Orbital Energies (a.u.)
 --------------------------------------------------------------
 
 Alpha MOs
 -- Occupied --
-14.4241 -14.3789 -14.3408 -10.2424 -10.2338 -10.2133 -10.2112 -10.1972
-10.1910 -10.1781  -1.1068  -0.9274  -0.8396  -0.7860  -0.7551  -0.7412
 -0.6546  -0.6091  -0.5919  -0.5517  -0.5257  -0.5038  -0.4820  -0.4562
 -0.4479  -0.4322  -0.4250  -0.4195  -0.3831  -0.3647  -0.3248  -0.3205
 -0.3115  -0.2690  -0.2536  -0.2175
 -- Virtual --
 -0.0441   0.0100   0.0371   0.0835   0.1079   0.1220   0.1276   0.1396
  0.1446   0.1544   0.1592   0.1693   0.1922   0.2063   0.2593   0.2686
  0.3104   0.3205   0.3349   0.3422   0.3601   0.4332   0.4605   0.4772
  0.5029   0.5079   0.5373   0.5494   0.5559   0.5649   0.5816   0.6099
  0.6230   0.6291   0.6453   0.6635   0.6735   0.6798   0.7082   0.7281
  0.7410   0.7540   0.7592   0.8012   0.8281   0.8353   0.8388   0.8531
  0.8680   0.8781   0.8866   0.9048   0.9084   0.9189   0.9379   0.9687
  0.9773   0.9934   1.0163   1.0558   1.0673   1.0950   1.1182   1.1508
  1.1969   1.2274   1.2808   1.3055   1.3196   1.3479   1.3814   1.3998
  1.4452   1.4643   1.4780   1.5209   1.5734   1.6039   1.6350   1.6678
  1.6840   1.7633   1.8258   1.8582   1.8886   1.8976   1.9128   1.9618
  1.9897   2.0057   2.0110   2.0667   2.0767   2.1324   2.1417   2.1549
  2.1668   2.2169   2.2487   2.2530   2.2967   2.3194   2.3432   2.3664
  2.3830   2.4065   2.4461   2.5070   2.5261   2.6075   2.6311   2.6474
  2.6786   2.7177   2.7228   2.7656   2.8329   2.9487   2.9642   3.1445
  3.2109   3.3216   3.6089   3.9861   4.0749   4.1085   4.1252   4.1948
  4.2375   4.3086   4.4092   4.7053
 --------------------------------------------------------------
 
          Ground-State Mulliken Net Atomic Charges

     Atom                 Charge (a.u.)
  ----------------------------------------
      1 C                    -0.353564
      2 C                    -0.096599
      3 C                     0.176028
      4 N                    -0.334736
      5 N                    -0.076316
      6 N                    -0.285194
      7 C                    -0.330380
      8 C                     0.297204
      9 C                    -0.134890
     10 C                    -0.330249
     11 H                     0.144021
     12 H                     0.149348
     13 H                     0.148827
     14 H                     0.205975
     15 H                     0.182616
     16 H                     0.178217
     17 H                     0.139327
     18 H                     0.169586
     19 H                     0.150780
  ----------------------------------------
  Sum of atomic charges =     0.000000

 -----------------------------------------------------------------
                    Cartesian Multipole Moments
 -----------------------------------------------------------------
    Charge (ESU x 10^10)
                 0.0000
    Dipole Moment (Debye)
         X      -0.5337      Y      -4.3836      Z      -0.4008
       Tot       4.4341
    Quadrupole Moments (Debye-Ang)
        XX     -50.4379     XY       5.3135     YY     -62.3568
        XZ       1.8491     YZ       0.5825     ZZ     -59.4431
    Octopole Moments (Debye-Ang^2)
       XXX     -15.7716    XXY      -7.6685    XYY       8.2706
       YYY     -25.5719    XXZ      -1.2260    XYZ       0.3092
       YYZ      -1.0385    XZZ      -5.2568    YZZ      -0.2205
       ZZZ      -0.0304
    Hexadecapole Moments (Debye-Ang^3)
      XXXX   -1008.7371   XXXY      29.5705   XXYY    -299.5530
      XYYY       8.4427   YYYY    -705.3725   XXXZ       1.2691
      XXYZ       2.6449   XYYZ      10.2308   YYYZ       1.2804
      XXZZ    -204.1284   XYZZ      -0.0771   YYZZ    -135.8826
      XZZZ       4.6984   YZZZ       3.1998   ZZZZ     -95.7580
 -----------------------------------------------------------------
Archival summary:
1\1\nia1977.scinet.local\SP\ProcedureUnspecified\6-31G*\379\rhickman\MonFeb717:18:142022MonFeb717:18:142022\0\\#,ProcedureUnspecified,6-31G*,\\0,1\N\N,1,1.32719\N,2,1.27547,1,108.959\C,3,1.35406,2,109.939,1,-0.0936419,0\C,1,1.36262,2,110.415,3,0.638211,0\C,1,1.43186,2,120.932,3,179.122,0\H,6,1.08827,1,107.257,2,-1.24339,0\H,6,1.09146,1,110.632,2,-120.758,0\H,6,1.09208,1,110.734,2,117.991,0\C,5,1.44439,1,121.549,2,176.775,0\H,10,1.08376,5,115.23,1,31.592,0\C,10,1.32711,5,124.676,1,-146.086,0\H,12,1.07614,10,121.362,5,179.079,0\H,12,1.07632,10,121.727,5,-0.393574,0\C,4,1.44672,3,119.314,2,176.374,0\H,15,1.08168,4,113.188,3,21.7974,0\C,15,1.32627,4,125.907,3,-154.04,0\H,17,1.07635,15,121.216,4,177.498,0\H,17,1.07698,15,122.273,4,-1.63931,0\\\@

 Total job time:  19.21s(wall), 19.14s(cpu) 
 Mon Feb  7 17:18:14 2022

        *************************************************************
        *                                                           *
        *  Thank you very much for using Q-Chem.  Have a nice day.  *
        *                                                           *
        *************************************************************


