20
 energy: -43.328198681266 gnorm: 0.000090972957 xtb: 6.4.1 (23d549d)
C         3.84847633220000   -0.09760504010000    0.08387568570000
C         2.81224135790000    0.72702679400000   -0.02972050610000
C         1.39930263590000    0.37606467890000   -0.01559944820000
C         0.44395577660000    1.40144333660000   -0.01503676890000
F         0.85651117000000    2.67909494390000   -0.02203548990000
C        -0.91553707970000    1.15005830440000   -0.00358292960000
F        -1.75719033280000    2.19615090920000   -0.00065099110000
C        -1.44138837380000   -0.14921035210000    0.00418634110000
C        -2.88652495930000   -0.32501962840000    0.01478627320000
C        -3.56084772610000   -1.47052772170000    0.02256693200000
C        -0.48863446360000   -1.17287700500000   -0.00084687620000
F        -0.86865284010000   -2.45939181380000    0.00210044970000
C         0.87582982180000   -0.92052893240000   -0.00992794100000
F         1.69142850390000   -1.98554847840000   -0.02190982520000
H         4.85255428350000    0.28974084690000    0.06065581110000
H         3.75344304100000   -1.16118438430000    0.20411234280000
H         2.99312549830000    1.78835692010000   -0.13594885700000
H        -3.43499338200000    0.60755470590000    0.01616878210000
H        -3.09366324130000   -2.43814496210000    0.02198063560000
H        -4.63728198780000   -1.46326275090000    0.02986274160000
