
Running Job 1 of 1 fragments/C130/conf-4/spe_input.inp
qchem fragments/C130/conf-4/spe_input.inp_32541.0 /gpfs/fs0/scratch/a/aspuru/rhickman/descriptor_computation/qchem32541/ 0
/scinet/niagara/software/commercial/qc52/exe/qcprog.exe_s fragments/C130/conf-4/spe_input.inp_32541.0 /gpfs/fs0/scratch/a/aspuru/rhickman/descriptor_computation/qchem32541/
                  Welcome to Q-Chem
     A Quantum Leap Into The Future Of Chemistry


 Q-Chem 5.2, Q-Chem, Inc., Pleasanton, CA (2019)

 License issued to: SRG Alan Aspuru-Guzik, University of Toronto

 Yihan Shao,  Zhengting Gan,  E. Epifanovsky,  A. T. B. Gilbert,  M. Wormit,  
 J. Kussmann,  A. W. Lange,  A. Behn,  Jia Deng,  Xintian Feng,  D. Ghosh,  
 M. Goldey,  P. R. Horn,  L. D. Jacobson,  I. Kaliman,  T. Kus,  A. Landau,  
 Jie Liu,  E. I. Proynov,  R. M. Richard,  R. P. Steele,  E. J. Sundstrom,  
 H. L. Woodcock III,  P. M. Zimmerman,  D. Zuev,  B. Albrecht,  E. Alguire,  
 S. A. Baeppler,  D. Barton,  Z. Benda,  Y. A. Bernard,  E. J. Berquist,  
 K. B. Bravaya,  H. Burton,  D. Casanova,  Chun-Min Chang,  Yunqing Chen,  
 A. Chien,  K. D. Closser,  M. P. Coons,  S. Coriani,  S. Dasgupta,  
 A. L. Dempwolff,  M. Diedenhofen,  Hainam Do,  R. G. Edgar,  Po-Tung Fang,  
 S. Faraji,  S. Fatehi,  Qingguo Feng,  K. D. Fenk,  J. Fosso-Tande,  
 J. Gayvert,  Qinghui Ge,  A. Ghysels,  G. Gidofalvi,  J. Gomes,  
 J. Gonthier,  A. Gunina,  D. Hait,  M. W. D. Hanson-Heine,  
 P. H. P. Harbach,  A. W. Hauser,  M. F. Herbst,  J. E. Herr,  
 E. G. Hohenstein,  Z. C. Holden,  Kerwin Hui,  B. C. Huynh,  T.-C. Jagau,  
 Hyunjun Ji,  B. Kaduk,  K. Khistyaev,  Jaehoon Kim,  P. Klunzinger,  K. Koh,  
 D. Kosenkov,  L. Koulias,  T. Kowalczyk,  C. M. Krauter,  A. Kunitsa,  
 Ka Un Lao,  A. Laurent,  K. V. Lawler,  Joonho Lee,  D. Lefrancois,  
 S. Lehtola,  D. S. Levine,  Yi-Pei Li,  You-Sheng Lin,  Fenglai Liu,  
 E. Livshits,  A. Luenser,  P. Manohar,  E. Mansoor,  S. F. Manzer,  
 Shan-Ping Mao,  Yuezhi Mao,  N. Mardirossian,  A. V. Marenich,  
 T. Markovich,  L. A. Martinez-Martinez,  S. A. Maurer,  N. J. Mayhall,  
 S. C. McKenzie,  J.-M. Mewes,  P. Morgante,  A. F. Morrison,  
 J. W. Mullinax,  K. Nanda,  T. S. Nguyen-Beck,  R. Olivares-Amaya,  
 J. A. Parkhill,  Zheng Pei,  T. M. Perrine,  F. Plasser,  P. Pokhilko,  
 S. Prager,  A. Prociuk,  E. Ramos,  D. R. Rehn,  F. Rob,  M. Scheurer,  
 M. Schneider,  N. Sergueev,  S. M. Sharada,  S. Sharma,  D. W. Small,  
 T. Stauch,  T. Stein,  Yu-Chuan Su,  A. J. W. Thom,  A. Tkatchenko,  
 T. Tsuchimochi,  N. M. Tubman,  L. Vogt,  M. L. Vidal,  O. Vydrov,  
 M. A. Watson,  J. Wenzel,  M. de Wergifosse,  T. A. Wesolowski,  A. White,  
 J. Witte,  A. Yamada,  Jun Yang,  K. Yao,  S. Yeganeh,  S. R. Yost,  
 Zhi-Qiang You,  A. Zech,  Igor Ying Zhang,  Xing Zhang,  Yan Zhao,  
 Ying Zhu,  B. R. Brooks,  G. K. L. Chan,  C. J. Cramer,  M. S. Gordon,  
 W. J. Hehre,  A. Klamt,  M. W. Schmidt,  C. D. Sherrill,  D. G. Truhlar,  
 A. Aspuru-Guzik,  R. Baer,  A. T. Bell,  N. A. Besley,  Jeng-Da Chai,  
 A. E. DePrince, III,  R. A. DiStasio Jr.,  A. Dreuw,  B. D. Dunietz,  
 T. R. Furlani,  Chao-Ping Hsu,  Yousung Jung,  Jing Kong,  D. S. Lambrecht,  
 WanZhen Liang,  C. Ochsenfeld,  V. A. Rassolov,  L. V. Slipchenko,  
 J. E. Subotnik,  T. Van Voorhis,  J. M. Herbert,  A. I. Krylov,  
 P. M. W. Gill,  M. Head-Gordon

 Contributors to earlier versions of Q-Chem not listed above: 
 R. D. Adamson,  B. Austin,  J. Baker,  G. J. O. Beran,  K. Brandhorst,  
 S. T. Brown,  E. F. C. Byrd,  A. K. Chakraborty,  C.-L. Cheng,  
 Siu Hung Chien,  D. M. Chipman,  D. L. Crittenden,  H. Dachsel,  
 R. J. Doerksen,  A. D. Dutoi,  L. Fusti-Molnar,  W. A. Goddard III,  
 A. Golubeva-Zadorozhnaya,  S. R. Gwaltney,  G. Hawkins,  A. Heyden,  
 S. Hirata,  G. Kedziora,  F. J. Keil,  C. Kelley,  Jihan Kim,  R. A. King,  
 R. Z. Khaliullin,  P. P. Korambath,  W. Kurlancheek,  A. M. Lee,  M. S. Lee,  
 S. V. Levchenko,  Ching Yeh Lin,  D. Liotard,  R. C. Lochan,  I. Lotan,  
 P. E. Maslen,  N. Nair,  D. P. O'Neill,  D. Neuhauser,  E. Neuscamman,  
 C. M. Oana,  R. Olson,  B. Peters,  R. Peverati,  P. A. Pieniazek,  
 Y. M. Rhee,  J. Ritchie,  M. A. Rohrdanz,  E. Rosta,  N. J. Russ,  
 H. F. Schaefer III,  N. E. Schultz,  N. Shenvi,  A. C. Simmonett,  A. Sodt,  
 D. Stuck,  K. S. Thanthiriwatte,  V. Vanovschi,  Tao Wang,  A. Warshel,  
 C. F. Williams,  Q. Wu,  X. Xu,  W. Zhang

 Please cite Q-Chem as follows:
 Y. Shao et al., Mol. Phys. 113, 184-215 (2015)
 DOI: 10.1080/00268976.2014.952696

 Q-Chem 5.2.1 for Intel X86 EM64T Linux

 Parts of Q-Chem use Armadillo 8.300.2 (Tropical Shenanigans).
 http://arma.sourceforge.net/

 Q-Chem begins on Mon Feb  7 12:46:52 2022  

Host: 
0

     Scratch files written to /gpfs/fs0/scratch/a/aspuru/rhickman/descriptor_computation/qchem32541//
 Jul1719 |scratch|qcdevops|jenkins|workspace|build_RNUM -1
Processing $rem in /scinet/niagara/software/commercial/qc52/config/preferences:
	 MEM_TOTAL  4000 
NAlpha2: 180
NElect   180
Mult     1

Checking the input file for inconsistencies... 	...done.

--------------------------------------------------------------
User input:
--------------------------------------------------------------
$molecule
0 1
C        -6.28205069720000   -0.90824982260000    0.01338824880000
C        -5.12078611440000   -1.29035358680000    0.53309880660000
C        -3.79720677730000   -0.83125979170000    0.14124623790000
C        -3.57185371850000    0.11676720520000   -0.85642579630000
C        -2.29470625930000    0.51589234610000   -1.19133093380000
C        -1.17466049870000    0.00161642080000   -0.53493237180000
C        -1.40289675310000   -0.94462307860000    0.46807876700000
C        -2.67914468140000   -1.35833198290000    0.78993164460000
S        -0.04423050650000   -1.59236654170000    1.40780456470000
C         1.20534211450000   -1.51856810540000    0.15163165690000
C         2.23749707260000   -2.43310960610000    0.19687192360000
C         3.28398560010000   -2.39144269370000   -0.72599186550000
C         4.36451520500000   -3.35862919800000   -0.61099235700000
C         5.45807941050000   -3.42189854460000   -1.36241387040000
C         3.22423386610000   -1.41530111200000   -1.72010630190000
C         2.18003091160000   -0.51587448460000   -1.77907562040000
C         1.15551451620000   -0.52518261350000   -0.83024600580000
N         0.11582218120000    0.39794932660000   -0.87292726820000
C         0.34652259640000    1.73316360230000   -1.38125941090000
C        -0.13694841920000    2.79311038800000   -0.38509976190000
C         0.60121181030000    2.67804628240000    0.94716898370000
C         0.07756526810000    3.64146899070000    2.01186549370000
C         0.25444922260000    5.12510221760000    1.68355277780000
C         1.71399574400000    5.53929363320000    1.53604810650000
H        -7.21369358190000   -1.31105501460000    0.37167222470000
H        -6.35701569470000   -0.18785327000000   -0.78293312720000
H        -5.12111571010000   -2.02197876810000    1.33204336730000
H        -4.40480650390000    0.54985067590000   -1.38737919370000
H        -2.16539081200000    1.23859737900000   -1.98130798950000
H        -2.80299583530000   -2.08719019360000    1.57744086900000
H         2.23680568180000   -3.17439363290000    0.98249930220000
H         4.23293747600000   -4.08328436390000    0.18339152440000
H         5.65669363610000   -2.73113209740000   -2.16373534250000
H         6.20568660960000   -4.17861379860000   -1.19810460630000
H         3.99655023000000   -1.36137658890000   -2.47092399810000
H         2.15481531390000    0.20241672310000   -2.58431521180000
H        -0.13048396720000    1.88225083140000   -2.35833888380000
H         1.42283076070000    1.85661557740000   -1.50896202370000
H        -1.20912455810000    2.68333247230000   -0.21297033430000
H         0.03704274290000    3.77357242210000   -0.83037777610000
H         1.66856061930000    2.84324619530000    0.78882902820000
H         0.48298165170000    1.66093729280000    1.32776899320000
H         0.59435763380000    3.42893004130000    2.95081945820000
H        -0.98562871140000    3.44303986760000    2.17000112730000
H        -0.19555503360000    5.70551451640000    2.49266895100000
H        -0.28880193750000    5.37056619030000    0.76930926300000
H         2.28105500210000    5.25371041320000    2.41947393000000
H         1.78956600420000    6.61761188480000    1.41436615190000
H         2.17009249590000    5.07030951600000    0.66798057320000
$end

$rem
BASIS = 6-31G*
GUI = 2
METHOD = B3LYP
PRINT_ORBITALS false
MOLDEN_FORMAT false
--------------------------------------------------------------
 ----------------------------------------------------------------
             Standard Nuclear Orientation (Angstroms)
    I     Atom           X                Y                Z
 ----------------------------------------------------------------
    1      C      -5.2605954055     3.5818200591     0.2940482722
    2      C      -4.1440977176     3.3440876838    -0.3853293932
    3      C      -3.0767209959     2.4277282021    -0.0149646485
    4      C      -3.0986694806     1.6401689927     1.1357557482
    5      C      -2.0578654756     0.7883759110     1.4419314020
    6      C      -0.9467393582     0.6650167905     0.6052578790
    7      C      -0.9289673285     1.4514025959    -0.5500662498
    8      C      -1.9609476375     2.3177943858    -0.8466046370
    9      S       0.4055544851     1.3010308590    -1.7098377826
   10      C       1.7014519145     0.8919918156    -0.5704584638
   11      C       2.9940548720     1.2564009004    -0.8869395990
   12      C       4.0667863799     0.9119546911    -0.0628304655
   13      C       5.4130863767     1.2917755088    -0.4621189744
   14      C       6.5432531172     0.9942496787     0.1693249991
   15      C       3.7763426920     0.2211258760     1.1132155295
   16      C       2.4812385782    -0.1225536906     1.4409275046
   17      C       1.4109738120     0.1796782258     0.5964233174
   18      N       0.1076917632    -0.1895372057     0.9127938071
   19      C      -0.1451402781    -1.3991263649     1.6660477057
   20      C      -1.1702360383    -2.2880965598     0.9529725814
   21      C      -0.6732078772    -2.7066889745    -0.4293456456
   22      C      -1.7062691854    -3.5030129469    -1.2259761364
   23      C      -2.0966556122    -4.8492525168    -0.6132101264
   24      C      -0.9279354450    -5.8214495425    -0.5013427097
   25      H      -5.9928028786     4.2850890881    -0.0635307874
   26      H      -5.4926602275     3.0948392382     1.2255600951
   27      H      -3.9756395465     3.8729614804    -1.3156531420
   28      H      -3.9386698260     1.6934056931     1.8101802577
   29      H      -2.1080918681     0.2107351380     2.3512703074
   30      H      -1.9029112712     2.8989471880    -1.7552505410
   31      H       3.1682453551     1.7960709871    -1.8062473481
   32      H       5.4613617136     1.8714467495    -1.3759758033
   33      H       6.5701604647     0.4170530610     1.0775331559
   34      H       7.4966730259     1.3219622852    -0.2076722941
   35      H       4.5698118186    -0.0430098294     1.7942050355
   36      H       2.2962197233    -0.6276336866     2.3766898174
   37      H      -0.4780181513    -1.1773356569     2.6880299772
   38      H       0.7936115021    -1.9511454994     1.7293531741
   39      H      -2.1179504524    -1.7568375459     0.8488445212
   40      H      -1.3402121375    -3.1672324331     1.5759328344
   41      H       0.2454540249    -3.2873288376    -0.3268093498
   42      H      -0.4278077244    -1.8089288980    -1.0013168376
   43      H      -1.3057213227    -3.6795380852    -2.2271164797
   44      H      -2.6076721030    -2.8945435932    -1.3355218312
   45      H      -2.8669757624    -5.2970078600    -1.2458026238
   46      H      -2.5383390070    -4.6944773773     0.3727797438
   47      H      -0.4436010594    -5.9459964913    -1.4675018187
   48      H      -1.2781151240    -6.7951152250    -0.1657284294
   49      H      -0.1879027126    -5.4664575208     0.2112889000
 ----------------------------------------------------------------
 Molecular Point Group                 C1    NOp =  1
 Largest Abelian Subgroup              C1    NOp =  1
 Nuclear Repulsion Energy =        2123.47036731 hartrees
 There are       90 alpha and       90 beta electrons
 Requested basis set is 6-31G(d)
 There are 147 shells and 414 basis functions

 Total QAlloc Memory Limit   4000 MB
 Mega-Array Size       188 MB
 MEM_STATIC part       192 MB
 A cutoff of  1.0D-08 yielded   4841 shell pairs
 There are     42189 function pairs
 Smallest overlap matrix eigenvalue = 3.35E-04

 Scale SEOQF with 1.000000e-02/1.000000e-02/1.000000e-01

 Standard Electronic Orientation quadrupole field applied
 Nucleus-field energy     =    -0.0000000085 hartrees
 Guess from superposition of atomic densities
 Warning:  Energy on first SCF cycle will be non-variational
 SAD guess density has 180.000000 electrons

 -----------------------------------------------------------------------
  General SCF calculation program by
  Eric Jon Sundstrom, Paul Horn, Yuezhi Mao, Dmitri Zuev, Alec White,
  David Stuck, Shaama M.S., Shane Yost, Joonho Lee, David Small,
  Daniel Levine, Susi Lehtola, Hugh Burton, Evgeny Epifanovsky,
  Bang C. Huynh
 -----------------------------------------------------------------------
 Exchange:     0.2000 Hartree-Fock + 0.0800 Slater + 0.7200 B88
 Correlation:  0.1900 VWN1RPA + 0.8100 LYP
 Using SG-1 standard quadrature grid
 A restricted SCF calculation will be
 performed using DIIS
 SCF converges when DIIS error is below 1.0e-05
 ---------------------------------------
  Cycle       Energy         DIIS error
 ---------------------------------------
    1   -1312.1029371029      3.99e-02  
    2   -1305.9145645018      4.06e-03  
    3   -1305.7891458980      4.69e-03  
    4   -1306.2622441986      1.35e-03  
    5   -1306.3025540066      4.16e-04  
    6   -1306.3062536976      1.18e-04  
    7   -1306.3065487278      5.28e-05  
    8   -1306.3066133728      1.62e-05  
    9   -1306.3066191512      2.92e-06  Convergence criterion met
 ---------------------------------------
 SCF time:   CPU 142.19s  wall 143.00s 
 SCF   energy in the final basis set =    -1306.3066191512
 Total energy in the final basis set =    -1306.3066191512
 
 --------------------------------------------------------------
 
                    Orbital Energies (a.u.)
 --------------------------------------------------------------
 
 Alpha MOs
 -- Occupied --
-88.8873 -14.3667 -10.2348 -10.2347 -10.2256 -10.2179 -10.2171 -10.1928
-10.1918 -10.1914 -10.1913 -10.1907 -10.1905 -10.1889 -10.1884 -10.1880
-10.1877 -10.1821 -10.1766 -10.1759 -10.1735 -10.1713 -10.1711 -10.1678
 -7.9482  -5.9131  -5.9096  -5.9033  -0.9796  -0.8708  -0.8670  -0.8184
 -0.8056  -0.7979  -0.7761  -0.7661  -0.7580  -0.7335  -0.7260  -0.7115
 -0.6784  -0.6567  -0.6458  -0.6192  -0.6072  -0.6051  -0.5892  -0.5639
 -0.5563  -0.5461  -0.5339  -0.5115  -0.4934  -0.4818  -0.4801  -0.4693
 -0.4621  -0.4564  -0.4499  -0.4434  -0.4359  -0.4271  -0.4215  -0.4161
 -0.4122  -0.4061  -0.4021  -0.3907  -0.3892  -0.3836  -0.3822  -0.3788
 -0.3615  -0.3558  -0.3504  -0.3462  -0.3458  -0.3393  -0.3383  -0.3226
 -0.3171  -0.3131  -0.3082  -0.3016  -0.2984  -0.2619  -0.2594  -0.2241
 -0.2198  -0.1774
 -- Virtual --
 -0.0364  -0.0194  -0.0051  -0.0019   0.0326   0.0619   0.0682   0.0787
  0.0847   0.0993   0.1086   0.1139   0.1171   0.1201   0.1239   0.1314
  0.1393   0.1454   0.1493   0.1544   0.1598   0.1657   0.1702   0.1725
  0.1757   0.1770   0.1855   0.1880   0.1979   0.2035   0.2093   0.2110
  0.2122   0.2201   0.2264   0.2379   0.2391   0.2426   0.2480   0.2505
  0.2612   0.2730   0.2785   0.2912   0.3044   0.3065   0.3133   0.3218
  0.3349   0.3432   0.3484   0.3666   0.3802   0.3820   0.3991   0.4155
  0.4283   0.4387   0.4405   0.4541   0.4921   0.5010   0.5074   0.5095
  0.5159   0.5193   0.5225   0.5280   0.5331   0.5402   0.5450   0.5562
  0.5617   0.5655   0.5708   0.5721   0.5801   0.5865   0.5910   0.5968
  0.5983   0.6008   0.6009   0.6065   0.6133   0.6168   0.6214   0.6262
  0.6321   0.6380   0.6432   0.6585   0.6598   0.6741   0.6810   0.6846
  0.6857   0.6947   0.6978   0.7016   0.7028   0.7205   0.7303   0.7379
  0.7410   0.7723   0.7822   0.7943   0.7964   0.8065   0.8162   0.8259
  0.8298   0.8355   0.8485   0.8543   0.8606   0.8686   0.8719   0.8801
  0.8818   0.8855   0.8877   0.8929   0.8974   0.8992   0.9012   0.9087
  0.9161   0.9197   0.9349   0.9409   0.9501   0.9603   0.9616   0.9656
  0.9667   0.9754   0.9784   0.9856   0.9965   1.0022   1.0060   1.0164
  1.0223   1.0269   1.0311   1.0372   1.0499   1.0584   1.0659   1.0803
  1.0875   1.0904   1.1068   1.1115   1.1290   1.1493   1.1536   1.1750
  1.1810   1.1997   1.2141   1.2237   1.2350   1.2663   1.2695   1.2852
  1.2920   1.3009   1.3221   1.3260   1.3472   1.3506   1.3776   1.3806
  1.4098   1.4282   1.4439   1.4528   1.4589   1.4684   1.4766   1.4793
  1.5036   1.5123   1.5153   1.5232   1.5234   1.5337   1.5390   1.5562
  1.5865   1.5921   1.6184   1.6344   1.6596   1.6771   1.6803   1.6876
  1.6900   1.7099   1.7450   1.7785   1.7800   1.7972   1.8051   1.8083
  1.8297   1.8480   1.8531   1.8614   1.8775   1.8940   1.8994   1.9045
  1.9206   1.9293   1.9541   1.9617   1.9710   1.9762   1.9888   1.9894
  2.0030   2.0061   2.0155   2.0232   2.0315   2.0384   2.0535   2.0653
  2.0746   2.0861   2.0955   2.1255   2.1345   2.1380   2.1412   2.1521
  2.1661   2.1707   2.1752   2.2053   2.2184   2.2343   2.2443   2.2534
  2.2629   2.2658   2.2821   2.3107   2.3184   2.3236   2.3283   2.3333
  2.3398   2.3460   2.3898   2.3961   2.4029   2.4074   2.4354   2.4404
  2.4651   2.5014   2.5106   2.5201   2.5327   2.5562   2.5688   2.5826
  2.6093   2.6151   2.6243   2.6327   2.6511   2.6768   2.6783   2.6879
  2.7050   2.7237   2.7332   2.7429   2.7506   2.7950   2.8054   2.8269
  2.8604   2.8862   2.9041   2.9160   2.9728   2.9899   3.0804   3.1160
  3.2032   3.2866   3.4211   3.4597   3.9813   4.0908   4.0937   4.1187
  4.1261   4.1310   4.1433   4.1468   4.1714   4.1752   4.2038   4.2676
  4.2747   4.2873   4.3471   4.3543   4.3753   4.4423   4.4662   4.5004
  4.5251   4.5889   4.7489   4.7897
 --------------------------------------------------------------
 
          Ground-State Mulliken Net Atomic Charges

     Atom                 Charge (a.u.)
  ----------------------------------------
      1 C                    -0.357236
      2 C                    -0.113582
      3 C                     0.199897
      4 C                    -0.203413
      5 C                    -0.161512
      6 C                     0.316239
      7 C                    -0.113422
      8 C                    -0.263308
      9 S                     0.159938
     10 C                    -0.110326
     11 C                    -0.262255
     12 C                     0.197780
     13 C                    -0.113235
     14 C                    -0.357353
     15 C                    -0.201009
     16 C                    -0.166105
     17 C                     0.315697
     18 N                    -0.579011
     19 C                    -0.161605
     20 C                    -0.279576
     21 C                    -0.269936
     22 C                    -0.252916
     23 C                    -0.253701
     24 C                    -0.443183
     25 H                     0.143223
     26 H                     0.139704
     27 H                     0.127297
     28 H                     0.128360
     29 H                     0.133171
     30 H                     0.141991
     31 H                     0.141445
     32 H                     0.127001
     33 H                     0.139339
     34 H                     0.142745
     35 H                     0.127927
     36 H                     0.135976
     37 H                     0.142789
     38 H                     0.159947
     39 H                     0.152288
     40 H                     0.138497
     41 H                     0.130782
     42 H                     0.168182
     43 H                     0.129848
     44 H                     0.130572
     45 H                     0.131680
     46 H                     0.131774
     47 H                     0.143957
     48 H                     0.142036
     49 H                     0.142603
  ----------------------------------------
  Sum of atomic charges =     0.000000

 -----------------------------------------------------------------
                    Cartesian Multipole Moments
 -----------------------------------------------------------------
    Charge (ESU x 10^10)
                 0.0000
    Dipole Moment (Debye)
         X      -0.3812      Y      -1.2721      Z       1.6650
       Tot       2.1297
    Quadrupole Moments (Debye-Ang)
        XX    -144.3295     XY      -1.7310     YY    -151.1820
        XZ      -1.1086     YZ      -6.6012     ZZ    -145.1043
    Octopole Moments (Debye-Ang^2)
       XXX      16.4332    XXY      20.7098    XYY     -17.7127
       YYY     -16.1016    XXZ      12.2434    XYZ      -8.4146
       YYZ     -16.4204    XZZ      -0.4030    YZZ      -4.3383
       ZZZ       9.7506
    Hexadecapole Moments (Debye-Ang^3)
      XXXX   -7519.1724   XXXY     -45.9648   XXYY   -2200.2100
      XYYY     -23.2321   YYYY   -5655.8595   XXXZ     -48.3322
      XXYZ     -75.0624   XYYZ      20.5026   YYYZ     -64.1389
      XXZZ   -1428.8771   XYZZ     -10.4116   YYZZ   -1098.6345
      XZZZ      -6.3862   YZZZ     -22.6200   ZZZZ   -1124.5026
 -----------------------------------------------------------------
Archival summary:
1\1\nia1977.scinet.local\SP\ProcedureUnspecified\6-31G*\112225\rhickman\MonFeb712:49:152022MonFeb712:49:152022\0\\#,ProcedureUnspecified,6-31G*,\\0,1\S\C,1,1.77337\C,2,1.37977,1,118.444\H,3,1.08014,2,118.571,1,1.29639,0\C,3,1.39591,2,121.289,1,-177.092,0\C,5,1.39452,3,117.391,2,-1.92536,0\H,6,1.07847,5,120.04,3,-178.366,0\C,6,1.37942,5,121.287,3,0.773316,0\H,8,1.07935,6,118.914,5,-177.952,0\C,8,1.39642,6,121.466,5,1.44659,0\N,10,1.39103,8,121.54,6,178.708,0\C,11,1.39164,10,119.778,8,142.577,0\C,12,1.39637,11,121.651,10,-144,0\H,13,1.07847,12,119.667,11,0.0127891,0\C,13,1.37934,12,121.465,11,179.765,0\H,15,1.07856,13,118.643,12,179.477,0\C,15,1.39459,13,121.334,12,-0.845018,0\C,17,1.39594,15,117.367,13,0.141677,0\H,18,1.08016,17,120.115,15,179.3,0\C,18,1.37969,17,121.283,15,0.810269,0\C,11,1.44721,10,120.259,8,-31.8439,0\H,21,1.09087,11,107.627,10,-9.73609,0\H,21,1.09747,11,111.639,10,108.632,0\C,17,1.45471,15,123.66,13,-179.876,0\H,24,1.08332,17,114.335,15,-179.368,0\C,24,1.3284,17,126.814,15,0.862734,0\H,26,1.07637,24,121.25,17,179.784,0\H,26,1.07644,24,122.875,17,-0.112324,0\C,5,1.45472,3,118.995,2,178.417,0\H,29,1.08327,5,114.362,3,2.83978,0\C,29,1.32835,5,126.758,3,-176.792,0\H,31,1.07635,29,121.261,5,179.929,0\H,31,1.07644,29,122.85,5,0.0309882,0\C,21,1.53283,11,111.065,10,-127.761,0\H,34,1.0908,21,107.815,11,-178.52,0\H,34,1.09144,21,110.047,11,-60.7759,0\C,34,1.52744,21,111.243,11,60.4416,0\H,37,1.0916,34,109.549,21,61.4882,0\H,37,1.0924,34,108.767,21,-55.5006,0\C,37,1.52839,34,113.238,21,-175.428,0\H,40,1.09265,37,108.298,34,174.848,0\H,40,1.09305,37,108.639,34,58.3941,0\C,40,1.52979,37,114.975,34,-63.5544,0\H,43,1.09143,40,109.897,37,60.871,0\H,43,1.09273,40,107.975,37,177.497,0\C,43,1.52433,40,113.266,37,-62.0006,0\H,46,1.08697,43,111.212,40,66.5041,0\H,46,1.08779,43,110.285,40,-173.689,0\H,46,1.08791,43,110.437,40,-53.9573,0\\\@

 Total job time:  143.01s(wall), 142.63s(cpu) 
 Mon Feb  7 12:49:15 2022

        *************************************************************
        *                                                           *
        *  Thank you very much for using Q-Chem.  Have a nice day.  *
        *                                                           *
        *************************************************************


