
Running Job 1 of 1 fragments/A006/conf-1/spe_input.inp
qchem fragments/A006/conf-1/spe_input.inp_134121.0 /gpfs/fs0/scratch/a/aspuru/rhickman/descriptor_computation/qchem134121/ 0
/scinet/niagara/software/commercial/qc52/exe/qcprog.exe_s fragments/A006/conf-1/spe_input.inp_134121.0 /gpfs/fs0/scratch/a/aspuru/rhickman/descriptor_computation/qchem134121/
                  Welcome to Q-Chem
     A Quantum Leap Into The Future Of Chemistry


 Q-Chem 5.2, Q-Chem, Inc., Pleasanton, CA (2019)

 License issued to: SRG Alan Aspuru-Guzik, University of Toronto

 Yihan Shao,  Zhengting Gan,  E. Epifanovsky,  A. T. B. Gilbert,  M. Wormit,  
 J. Kussmann,  A. W. Lange,  A. Behn,  Jia Deng,  Xintian Feng,  D. Ghosh,  
 M. Goldey,  P. R. Horn,  L. D. Jacobson,  I. Kaliman,  T. Kus,  A. Landau,  
 Jie Liu,  E. I. Proynov,  R. M. Richard,  R. P. Steele,  E. J. Sundstrom,  
 H. L. Woodcock III,  P. M. Zimmerman,  D. Zuev,  B. Albrecht,  E. Alguire,  
 S. A. Baeppler,  D. Barton,  Z. Benda,  Y. A. Bernard,  E. J. Berquist,  
 K. B. Bravaya,  H. Burton,  D. Casanova,  Chun-Min Chang,  Yunqing Chen,  
 A. Chien,  K. D. Closser,  M. P. Coons,  S. Coriani,  S. Dasgupta,  
 A. L. Dempwolff,  M. Diedenhofen,  Hainam Do,  R. G. Edgar,  Po-Tung Fang,  
 S. Faraji,  S. Fatehi,  Qingguo Feng,  K. D. Fenk,  J. Fosso-Tande,  
 J. Gayvert,  Qinghui Ge,  A. Ghysels,  G. Gidofalvi,  J. Gomes,  
 J. Gonthier,  A. Gunina,  D. Hait,  M. W. D. Hanson-Heine,  
 P. H. P. Harbach,  A. W. Hauser,  M. F. Herbst,  J. E. Herr,  
 E. G. Hohenstein,  Z. C. Holden,  Kerwin Hui,  B. C. Huynh,  T.-C. Jagau,  
 Hyunjun Ji,  B. Kaduk,  K. Khistyaev,  Jaehoon Kim,  P. Klunzinger,  K. Koh,  
 D. Kosenkov,  L. Koulias,  T. Kowalczyk,  C. M. Krauter,  A. Kunitsa,  
 Ka Un Lao,  A. Laurent,  K. V. Lawler,  Joonho Lee,  D. Lefrancois,  
 S. Lehtola,  D. S. Levine,  Yi-Pei Li,  You-Sheng Lin,  Fenglai Liu,  
 E. Livshits,  A. Luenser,  P. Manohar,  E. Mansoor,  S. F. Manzer,  
 Shan-Ping Mao,  Yuezhi Mao,  N. Mardirossian,  A. V. Marenich,  
 T. Markovich,  L. A. Martinez-Martinez,  S. A. Maurer,  N. J. Mayhall,  
 S. C. McKenzie,  J.-M. Mewes,  P. Morgante,  A. F. Morrison,  
 J. W. Mullinax,  K. Nanda,  T. S. Nguyen-Beck,  R. Olivares-Amaya,  
 J. A. Parkhill,  Zheng Pei,  T. M. Perrine,  F. Plasser,  P. Pokhilko,  
 S. Prager,  A. Prociuk,  E. Ramos,  D. R. Rehn,  F. Rob,  M. Scheurer,  
 M. Schneider,  N. Sergueev,  S. M. Sharada,  S. Sharma,  D. W. Small,  
 T. Stauch,  T. Stein,  Yu-Chuan Su,  A. J. W. Thom,  A. Tkatchenko,  
 T. Tsuchimochi,  N. M. Tubman,  L. Vogt,  M. L. Vidal,  O. Vydrov,  
 M. A. Watson,  J. Wenzel,  M. de Wergifosse,  T. A. Wesolowski,  A. White,  
 J. Witte,  A. Yamada,  Jun Yang,  K. Yao,  S. Yeganeh,  S. R. Yost,  
 Zhi-Qiang You,  A. Zech,  Igor Ying Zhang,  Xing Zhang,  Yan Zhao,  
 Ying Zhu,  B. R. Brooks,  G. K. L. Chan,  C. J. Cramer,  M. S. Gordon,  
 W. J. Hehre,  A. Klamt,  M. W. Schmidt,  C. D. Sherrill,  D. G. Truhlar,  
 A. Aspuru-Guzik,  R. Baer,  A. T. Bell,  N. A. Besley,  Jeng-Da Chai,  
 A. E. DePrince, III,  R. A. DiStasio Jr.,  A. Dreuw,  B. D. Dunietz,  
 T. R. Furlani,  Chao-Ping Hsu,  Yousung Jung,  Jing Kong,  D. S. Lambrecht,  
 WanZhen Liang,  C. Ochsenfeld,  V. A. Rassolov,  L. V. Slipchenko,  
 J. E. Subotnik,  T. Van Voorhis,  J. M. Herbert,  A. I. Krylov,  
 P. M. W. Gill,  M. Head-Gordon

 Contributors to earlier versions of Q-Chem not listed above: 
 R. D. Adamson,  B. Austin,  J. Baker,  G. J. O. Beran,  K. Brandhorst,  
 S. T. Brown,  E. F. C. Byrd,  A. K. Chakraborty,  C.-L. Cheng,  
 Siu Hung Chien,  D. M. Chipman,  D. L. Crittenden,  H. Dachsel,  
 R. J. Doerksen,  A. D. Dutoi,  L. Fusti-Molnar,  W. A. Goddard III,  
 A. Golubeva-Zadorozhnaya,  S. R. Gwaltney,  G. Hawkins,  A. Heyden,  
 S. Hirata,  G. Kedziora,  F. J. Keil,  C. Kelley,  Jihan Kim,  R. A. King,  
 R. Z. Khaliullin,  P. P. Korambath,  W. Kurlancheek,  A. M. Lee,  M. S. Lee,  
 S. V. Levchenko,  Ching Yeh Lin,  D. Liotard,  R. C. Lochan,  I. Lotan,  
 P. E. Maslen,  N. Nair,  D. P. O'Neill,  D. Neuhauser,  E. Neuscamman,  
 C. M. Oana,  R. Olson,  B. Peters,  R. Peverati,  P. A. Pieniazek,  
 Y. M. Rhee,  J. Ritchie,  M. A. Rohrdanz,  E. Rosta,  N. J. Russ,  
 H. F. Schaefer III,  N. E. Schultz,  N. Shenvi,  A. C. Simmonett,  A. Sodt,  
 D. Stuck,  K. S. Thanthiriwatte,  V. Vanovschi,  Tao Wang,  A. Warshel,  
 C. F. Williams,  Q. Wu,  X. Xu,  W. Zhang

 Please cite Q-Chem as follows:
 Y. Shao et al., Mol. Phys. 113, 184-215 (2015)
 DOI: 10.1080/00268976.2014.952696

 Q-Chem 5.2.1 for Intel X86 EM64T Linux

 Parts of Q-Chem use Armadillo 8.300.2 (Tropical Shenanigans).
 http://arma.sourceforge.net/

 Q-Chem begins on Mon Feb  7 16:40:36 2022  

Host: 
0

     Scratch files written to /gpfs/fs0/scratch/a/aspuru/rhickman/descriptor_computation/qchem134121//
 Jul1719 |scratch|qcdevops|jenkins|workspace|build_RNUM -1
Processing $rem in /scinet/niagara/software/commercial/qc52/config/preferences:
	 MEM_TOTAL  4000 
NAlpha2: 198
NElect   198
Mult     1

Checking the input file for inconsistencies... 	...done.

--------------------------------------------------------------
User input:
--------------------------------------------------------------
$molecule
0 1
F         2.18943805150000    5.55933402840000   -0.50509212880000
C         2.07779367600000    4.23294064180000   -0.41496818900000
F         0.79115530680000    3.90726338020000   -0.49631266550000
C         3.12022978740000    3.42735547750000   -0.27426085340000
C         3.13939963880000    1.97792846890000   -0.16860273660000
C         4.39590227350000    1.34729239120000   -0.13058998750000
C         4.51848636660000   -0.01925454690000   -0.01929504030000
C         1.97616010060000    1.21455308060000   -0.10041199940000
C         2.09855702850000   -0.16158347040000   -0.01095118560000
C         3.36517871060000   -0.79157248550000    0.04507262440000
C         3.11659039800000   -2.19669240350000    0.17993491110000
C         3.94318767750000   -3.31033192190000    0.26712478370000
C         3.36207080700000   -4.55751290320000    0.36941786910000
C         1.97590690800000   -4.70466322730000    0.37102529660000
C         1.13324042320000   -3.61350033070000    0.28576267860000
C         1.71077473200000   -2.35401854040000    0.20577901510000
N         1.11002947010000   -1.11730599710000    0.08931537330000
C        -0.27202957250000   -0.87249994430000    0.08055517800000
C        -0.84277062560000   -0.10155940520000   -0.92761548730000
C        -2.20207404020000    0.13836721110000   -0.92966607980000
C        -3.02316009930000   -0.38554162750000    0.06666031070000
C        -4.47096813870000   -0.13045937450000    0.05918607050000
C        -5.19475452250000   -0.18386374480000   -1.12978379030000
C        -6.55688414810000    0.05169292900000   -1.13517499920000
C        -7.21683801740000    0.35072157560000    0.04500893720000
C        -6.50630168850000    0.41006989070000    1.23217862900000
C        -5.14524912960000    0.16838261030000    1.24085622840000
C        -2.44160635700000   -1.15748266750000    1.07033907990000
C        -1.08254327740000   -1.39865979670000    1.08190276900000
H         4.07864431320000    3.92544853460000   -0.24390922830000
H         5.28426649130000    1.95874618860000   -0.18533992160000
H         5.49144901990000   -0.48461692670000    0.02131781210000
H         1.00289678090000    1.67565225250000   -0.10080204130000
H         5.01653189710000   -3.19634446580000    0.25058500180000
H         3.98543176870000   -5.43627179290000    0.44054548900000
H         1.55096344200000   -5.69538275540000    0.43664894190000
H         0.06120526240000   -3.73922650800000    0.27031764880000
H        -0.21805731740000    0.29824910160000   -1.71223399620000
H        -2.63231057150000    0.75228241650000   -1.70677576400000
H        -4.68790690230000   -0.43282602920000   -2.05087252490000
H        -7.10689154120000    0.00026069750000   -2.06361527280000
H        -8.28054641690000    0.53713044440000    0.03951610210000
H        -7.01516560990000    0.64783026020000    2.15504432580000
H        -4.59301767060000    0.23321389710000    2.16718211950000
H        -3.06419131560000   -1.58263598210000    1.84373761750000
H        -0.63905503630000   -1.98548008520000    1.87263770460000
$end

$rem
BASIS = 6-31G*
GUI = 2
METHOD = B3LYP
PRINT_ORBITALS false
MOLDEN_FORMAT false
--------------------------------------------------------------
 ----------------------------------------------------------------
             Standard Nuclear Orientation (Angstroms)
    I     Atom           X                Y                Z
 ----------------------------------------------------------------
    1      F      -2.1351079801    -5.6713339647     0.1198531558
    2      C      -2.0452003502    -4.3413501108     0.0653942401
    3      F      -0.7650223489    -4.0058963937    -0.0639733927
    4      C      -3.0998934509    -3.5419942866     0.1293613178
    5      C      -3.1427286635    -2.0901184330     0.0784552804
    6      C      -4.4093705479    -1.4791573045     0.0614100803
    7      C      -4.5541468323    -0.1107063497     0.0261145994
    8      C      -1.9920572262    -1.3054101251     0.0518790102
    9      C      -2.1369978746     0.0702206538    -0.0061573633
   10      C      -3.4135902127     0.6823205170    -0.0051220801
   11      C      -3.1877117314     2.0975693198    -0.0250144741
   12      C      -4.0322927101     3.2008065306    -0.0496871408
   13      C      -3.4715489541     4.4608414644    -0.0884104966
   14      C      -2.0881181056     4.6293676179    -0.1171190269
   15      C      -1.2278353748     3.5489368594    -0.0931193438
   16      C      -1.7845956295     2.2791383996    -0.0309298373
   17      N      -1.1639915788     1.0468064283    -0.0197455156
   18      C       0.2218931812     0.8245300288    -0.0164934175
   19      C       0.7968860803    -0.0414876545    -0.9416416722
   20      C       2.1599946141    -0.2585523261    -0.9320077490
   21      C       2.9806638462     0.3827994529    -0.0065354527
   22      C       4.4324710962     0.1514941866    -0.0015835264
   23      C       5.1449366417     0.0878371462    -1.1968695648
   24      C       6.5107678643    -0.1251990302    -1.1910568687
   25      C       7.1858816394    -0.2846077287     0.0075263042
   26      C       6.4867489879    -0.2268423346     1.2015249094
   27      C       5.1219190852    -0.0073404072     1.1983076316
   28      C       2.3948043966     1.2491548275     0.9141522610
   29      C       1.0319972279     1.4684927023     0.9138383312
   30      H      -4.0494239338    -4.0491085927     0.2231870099
   31      H      -5.2876768662    -2.1070215984     0.0821157524
   32      H      -5.5344745456     0.3407638015     0.0265021387
   33      H      -1.0111533024    -1.7482982682     0.0910156020
   34      H      -5.1036521856     3.0686173471    -0.0426577636
   35      H      -4.1090857344     5.3321033831    -0.1058671864
   36      H      -1.6794869541     5.6280269441    -0.1630399109
   37      H      -0.1582604631     3.6893232185    -0.1331965808
   38      H       0.1722803782    -0.5335111619    -1.6720664453
   39      H       2.5938438042    -0.9457912801    -1.6429031800
   40      H       4.6259915291     0.2278693872    -2.1340825223
   41      H       7.0517727940    -0.1654773202    -2.1253191841
   42      H       8.2525112838    -0.4535537119     0.0110552082
   43      H       7.0075354182    -0.3555156466     2.1392766095
   44      H       4.5788994566     0.0193552055     2.1319346255
   45      H       3.0167552331     1.7651276115     1.6307148283
   46      H       0.5854761183     2.1300572151     1.6413360311
 ----------------------------------------------------------------
 Molecular Point Group                 C1    NOp =  1
 Largest Abelian Subgroup              C1    NOp =  1
 Nuclear Repulsion Energy =        2435.23462451 hartrees
 There are       99 alpha and       99 beta electrons
 Requested basis set is 6-31G(d)
 There are 150 shells and 469 basis functions

 Total QAlloc Memory Limit   4000 MB
 Mega-Array Size       188 MB
 MEM_STATIC part       192 MB
 A cutoff of  1.0D-08 yielded   4576 shell pairs
 There are     48329 function pairs
 Smallest overlap matrix eigenvalue = 2.52E-04

 Scale SEOQF with 1.000000e-02/1.000000e-02/1.000000e-01

 Standard Electronic Orientation quadrupole field applied
 Nucleus-field energy     =     0.0000000092 hartrees
 Guess from superposition of atomic densities
 Warning:  Energy on first SCF cycle will be non-variational
 SAD guess density has 198.000000 electrons

 -----------------------------------------------------------------------
  General SCF calculation program by
  Eric Jon Sundstrom, Paul Horn, Yuezhi Mao, Dmitri Zuev, Alec White,
  David Stuck, Shaama M.S., Shane Yost, Joonho Lee, David Small,
  Daniel Levine, Susi Lehtola, Hugh Burton, Evgeny Epifanovsky,
  Bang C. Huynh
 -----------------------------------------------------------------------
 Exchange:     0.2000 Hartree-Fock + 0.0800 Slater + 0.7200 B88
 Correlation:  0.1900 VWN1RPA + 0.8100 LYP
 Using SG-1 standard quadrature grid
 A restricted SCF calculation will be
 performed using DIIS
 SCF converges when DIIS error is below 1.0e-05
 ---------------------------------------
  Cycle       Energy         DIIS error
 ---------------------------------------
    1   -1263.2079686646      3.86e-02  
    2   -1255.0399500366      3.68e-03  
    3   -1254.7990272690      4.76e-03  
    4   -1255.3942689600      1.29e-03  
    5   -1255.4381405807      4.17e-04  
    6   -1255.4422114276      2.09e-04  
    7   -1255.4434452359      4.84e-05  
    8   -1255.4435030220      2.14e-05  
    9   -1255.4435165623      4.45e-06  Convergence criterion met
 ---------------------------------------
 SCF time:   CPU 164.07s  wall 164.00s 
 SCF   energy in the final basis set =    -1255.4435165623
 Total energy in the final basis set =    -1255.4435165623
 
 --------------------------------------------------------------
 
                    Orbital Energies (a.u.)
 --------------------------------------------------------------
 
 Alpha MOs
 -- Occupied --
-24.7408 -24.7299 -14.3830 -10.3518 -10.2366 -10.2223 -10.2212 -10.2025
-10.2019 -10.1993 -10.1982 -10.1976 -10.1974 -10.1964 -10.1962 -10.1900
-10.1899 -10.1892 -10.1891 -10.1887 -10.1874 -10.1852 -10.1848 -10.1846
-10.1843 -10.1842 -10.1835 -10.1818 -10.1776  -1.2807  -1.2199  -1.0030
 -0.8830  -0.8650  -0.8560  -0.8451  -0.8114  -0.7875  -0.7663  -0.7642
 -0.7535  -0.7490  -0.7426  -0.7157  -0.7111  -0.6593  -0.6398  -0.6336
 -0.6189  -0.6114  -0.5994  -0.5959  -0.5793  -0.5790  -0.5668  -0.5429
 -0.5310  -0.5286  -0.5147  -0.5093  -0.4976  -0.4835  -0.4806  -0.4620
 -0.4572  -0.4489  -0.4486  -0.4438  -0.4397  -0.4371  -0.4369  -0.4356
 -0.4324  -0.4247  -0.4229  -0.4199  -0.4125  -0.4030  -0.3894  -0.3851
 -0.3734  -0.3658  -0.3653  -0.3627  -0.3612  -0.3449  -0.3426  -0.3392
 -0.3357  -0.3315  -0.3027  -0.2785  -0.2641  -0.2551  -0.2550  -0.2534
 -0.2357  -0.2007  -0.1971
 -- Virtual --
 -0.0375  -0.0324  -0.0117  -0.0021   0.0082   0.0144   0.0215   0.0419
  0.0838   0.0908   0.0954   0.1004   0.1068   0.1242   0.1280   0.1373
  0.1448   0.1494   0.1533   0.1561   0.1639   0.1678   0.1698   0.1727
  0.1772   0.1847   0.1895   0.1912   0.2047   0.2083   0.2115   0.2144
  0.2185   0.2342   0.2571   0.2648   0.2703   0.2811   0.2892   0.2979
  0.3042   0.3064   0.3160   0.3230   0.3284   0.3434   0.3516   0.3574
  0.3718   0.3756   0.3804   0.3928   0.4243   0.4429   0.4457   0.4609
  0.4814   0.4902   0.4974   0.5004   0.5066   0.5178   0.5243   0.5307
  0.5326   0.5379   0.5404   0.5428   0.5474   0.5503   0.5540   0.5564
  0.5614   0.5634   0.5728   0.5737   0.5767   0.5781   0.5799   0.5846
  0.5858   0.5940   0.5972   0.5990   0.6019   0.6034   0.6096   0.6140
  0.6144   0.6197   0.6214   0.6225   0.6226   0.6279   0.6348   0.6396
  0.6428   0.6474   0.6490   0.6547   0.6621   0.6742   0.6747   0.6938
  0.7095   0.7156   0.7214   0.7416   0.7498   0.7625   0.7794   0.7936
  0.7940   0.8091   0.8121   0.8209   0.8290   0.8307   0.8356   0.8383
  0.8417   0.8430   0.8451   0.8549   0.8571   0.8639   0.8671   0.8717
  0.8770   0.8786   0.8931   0.9060   0.9138   0.9144   0.9193   0.9224
  0.9410   0.9498   0.9560   0.9594   0.9696   0.9789   0.9973   1.0042
  1.0123   1.0130   1.0181   1.0245   1.0372   1.0492   1.0575   1.0807
  1.0896   1.1001   1.1024   1.1209   1.1272   1.1334   1.1555   1.1596
  1.1634   1.1661   1.1736   1.1776   1.1826   1.2031   1.2123   1.2154
  1.2186   1.2262   1.2372   1.2422   1.2620   1.2673   1.2770   1.2817
  1.3086   1.3271   1.3321   1.3379   1.3538   1.3580   1.3711   1.4002
  1.4028   1.4076   1.4162   1.4276   1.4334   1.4471   1.4525   1.4569
  1.4623   1.4657   1.4685   1.4781   1.4789   1.4867   1.4921   1.4944
  1.4981   1.4992   1.5042   1.5072   1.5144   1.5166   1.5590   1.6085
  1.6178   1.6438   1.6493   1.6718   1.6881   1.7234   1.7385   1.7494
  1.7634   1.7782   1.7819   1.7855   1.7907   1.7936   1.7976   1.8269
  1.8342   1.8371   1.8384   1.8408   1.8429   1.8659   1.8765   1.8839
  1.8953   1.9062   1.9083   1.9231   1.9277   1.9281   1.9345   1.9397
  1.9579   1.9715   1.9751   1.9845   1.9906   1.9987   2.0040   2.0085
  2.0285   2.0318   2.0418   2.0608   2.0730   2.0800   2.0851   2.0946
  2.1054   2.1106   2.1229   2.1318   2.1406   2.1426   2.1597   2.1613
  2.1663   2.1690   2.1784   2.2020   2.2217   2.2268   2.2352   2.2448
  2.2541   2.2617   2.2710   2.2785   2.2831   2.3050   2.3134   2.3143
  2.3170   2.3194   2.3225   2.3443   2.3506   2.3608   2.3844   2.4014
  2.4228   2.4287   2.4707   2.4999   2.5142   2.5267   2.5509   2.5646
  2.5720   2.5810   2.5928   2.5977   2.6324   2.6366   2.6448   2.6494
  2.6656   2.6747   2.6867   2.6956   2.7001   2.7052   2.7284   2.7301
  2.7434   2.7571   2.7622   2.7644   2.7698   2.7781   2.7933   2.8288
  2.8408   2.8605   2.8770   2.8915   2.9010   2.9342   2.9552   2.9903
  2.9963   3.0045   3.0680   3.1353   3.1550   3.2293   3.2609   3.3002
  3.3782   3.3973   3.4468   3.5131   3.5705   4.0838   4.0960   4.1008
  4.1086   4.1174   4.1178   4.1220   4.1299   4.1412   4.1550   4.1680
  4.1898   4.1999   4.2635   4.3336   4.3374   4.3456   4.3534   4.3716
  4.4318   4.4639   4.5152   4.5304   4.6868   4.7649   4.7874   4.8264
  4.8879   5.2878
 --------------------------------------------------------------
 
          Ground-State Mulliken Net Atomic Charges

     Atom                 Charge (a.u.)
  ----------------------------------------
      1 F                    -0.251607
      2 C                     0.542420
      3 F                    -0.236959
      4 C                    -0.303862
      5 C                     0.196782
      6 C                    -0.218254
      7 C                    -0.195289
      8 C                    -0.261453
      9 C                     0.319795
     10 C                     0.066557
     11 C                     0.057115
     12 C                    -0.193895
     13 C                    -0.145569
     14 C                    -0.138455
     15 C                    -0.178074
     16 C                     0.314975
     17 N                    -0.737734
     18 C                     0.283757
     19 C                    -0.160555
     20 C                    -0.186311
     21 C                     0.097084
     22 C                     0.084208
     23 C                    -0.169727
     24 C                    -0.132850
     25 C                    -0.123453
     26 C                    -0.133017
     27 C                    -0.169856
     28 C                    -0.186901
     29 C                    -0.161085
     30 H                     0.158753
     31 H                     0.121653
     32 H                     0.131483
     33 H                     0.151692
     34 H                     0.128519
     35 H                     0.122008
     36 H                     0.125497
     37 H                     0.139816
     38 H                     0.153879
     39 H                     0.141016
     40 H                     0.131994
     41 H                     0.130773
     42 H                     0.129629
     43 H                     0.130808
     44 H                     0.132311
     45 H                     0.139601
     46 H                     0.152781
  ----------------------------------------
  Sum of atomic charges =     0.000000

 -----------------------------------------------------------------
                    Cartesian Multipole Moments
 -----------------------------------------------------------------
    Charge (ESU x 10^10)
                 0.0000
    Dipole Moment (Debye)
         X       1.1429      Y       0.7421      Z       0.0305
       Tot       1.3630
    Quadrupole Moments (Debye-Ang)
        XX    -142.9062     XY       0.6892     YY    -164.3940
        XZ       0.1799     YZ       2.5064     ZZ    -160.1955
    Octopole Moments (Debye-Ang^2)
       XXX       8.4738    XXY     -43.1568    XYY     -33.0541
       YYY      -9.9322    XXZ       2.8396    XYZ       5.2805
       YYZ       2.8909    XZZ      35.9189    YZZ     -33.4178
       ZZZ       0.4340
    Hexadecapole Moments (Debye-Ang^3)
      XXXX  -11528.4288   XXXY       0.2248   XXYY   -3088.3751
      XYYY      36.6755   YYYY   -5761.1098   XXXZ      -9.0851
      XXYZ      -6.2932   XYYZ       5.6860   YYYZ      -4.0661
      XXZZ   -2171.8209   XYZZ      55.1500   YYZZ   -1089.6916
      XZZZ       0.3231   YZZZ      10.8492   ZZZZ    -545.2397
 -----------------------------------------------------------------
Archival summary:
1\1\nia1977.scinet.local\SP\ProcedureUnspecified\6-31G*\212617\rhickman\MonFeb716:43:222022MonFeb716:43:222022\0\\#,ProcedureUnspecified,6-31G*,\\0,1\N\C,1,1.37864\C,1,1.37982,2,108.379\C,2,1.38446,1,129.078,3,-177.665,0\H,4,1.07697,2,120.364,1,-0.217142,0\C,3,1.38789,1,129.572,2,-177.493,0\H,6,1.07949,3,121.206,1,-0.588238,0\C,6,1.3813,3,117.812,1,178.708,0\H,8,1.08,6,119.233,3,179.857,0\C,4,1.39302,2,118.297,1,178.828,0\C,8,1.39395,6,121.546,3,-0.382088,0\H,11,1.07975,8,119.216,6,179.829,0\C,11,1.37972,8,120.953,6,-0.725552,0\H,13,1.07951,11,121.022,8,-179.056,0\C,13,1.38963,11,118.589,8,0.693975,0\C,1,1.4036,2,125.779,3,179.731,0\C,16,1.39157,1,120.203,2,-128.655,0\H,17,1.07995,16,119.547,1,0.805569,0\C,17,1.38035,16,120.091,1,-179.94,0\H,19,1.08005,17,119.523,16,179.086,0\C,16,1.39158,1,120.331,2,51.2898,0\H,21,1.07969,16,119.625,1,0.772507,0\C,21,1.38032,16,120.084,1,-179.861,0\H,23,1.07977,21,119.491,16,178.927,0\C,23,1.39332,21,120.925,16,-0.202154,0\C,10,1.40639,4,119.934,2,-0.709054,0\H,26,1.07984,10,118.667,4,179.971,0\C,26,1.37654,10,121.796,4,-0.363339,0\H,28,1.07929,26,120.755,10,-179.195,0\C,28,1.38951,26,118.791,10,0.568848,0\C,10,1.4534,4,122.619,2,179.543,0\H,31,1.08054,10,116.485,4,175.447,0\C,31,1.32493,10,128.642,4,-5.14273,0\F,33,1.32971,31,128.234,10,-0.136884,0\F,33,1.33413,31,123.081,10,-179.811,0\C,25,1.47013,23,120.762,21,-179.85,0\C,36,1.39295,25,120.639,23,-138.129,0\H,37,1.08039,36,119.525,25,1.29613,0\C,37,1.38237,36,120.583,25,179.9,0\H,39,1.08035,37,119.793,36,-179.552,0\C,39,1.38483,37,120.203,36,0.322412,0\H,41,1.07993,39,120.155,37,179.84,0\C,41,1.38484,39,119.691,37,-0.18338,0\H,43,1.08035,41,120.003,39,179.76,0\C,43,1.38236,41,120.202,39,-0.135515,0\H,45,1.08041,43,119.881,41,178.987,0\\\@

 Total job time:  165.11s(wall), 164.59s(cpu) 
 Mon Feb  7 16:43:22 2022

        *************************************************************
        *                                                           *
        *  Thank you very much for using Q-Chem.  Have a nice day.  *
        *                                                           *
        *************************************************************


