
Running Job 1 of 1 tidas/B033/conf-0/spe_input.inp
qchem tidas/B033/conf-0/spe_input.inp_246517.0 /home/a/aspuru/seifridm/acdc_laser/descriptor_computation/qchem246517/ 0
/gpfs/fs1/scinet/niagara/software/commercial/qc54/exe/qcprog.exe_s tidas/B033/conf-0/spe_input.inp_246517.0 /home/a/aspuru/seifridm/acdc_laser/descriptor_computation/qchem246517/
                  Welcome to Q-Chem
     A Quantum Leap Into The Future Of Chemistry


 Q-Chem 5.4, Q-Chem, Inc., Pleasanton, CA (2021)

 License issued to: SRG Alan Aspuru-Guzik, University of Toronto

 E. Epifanovsky,  A. T. B. Gilbert,  Xintian Feng,  Joonho Lee,  Yuezhi Mao,  
 N. Mardirossian,  P. Pokhilko,  A. White,  M. Wormit,  M. P. Coons,  
 A. L. Dempwolff,  Zhengting Gan,  D. Hait,  P. R. Horn,  L. D. Jacobson,  
 I. Kaliman,  J. Kussmann,  A. W. Lange,  Ka Un Lao,  D. S. Levine,  Jie Liu,  
 S. C. McKenzie,  A. F. Morrison,  K. Nanda,  F. Plasser,  D. R. Rehn,  
 M. L. Vidal,  Zhi-Qiang You,  Ying Zhu,  B. Alam,  B. Albrecht,  
 A. Aldossary,  E. Alguire,  J. H. Andersen,  D. Barton,  K. Begam,  A. Behn,  
 Y. A. Bernard,  E. J. Berquist,  H. Burton,  A. Carreras,  K. Carter-Fenk,  
 Romit Chakraborty,  A. D. Chien,  K. D. Closser,  V. Cofer-Shabica,  
 S. Dasgupta,  Jia Deng,  M. de Wergifosse,  M. Diedenhofen,  Hainam Do,  
 S. Ehlert,  Po-Tung Fang,  S. Fatehi,  Qingguo Feng,  T. Friedhoff,  
 J. Gayvert,  Qinghui Ge,  G. Gidofalvi,  M. Goldey,  J. Gomes,  
 C. Gonzalez-Espinoza,  S. Gulania,  A. Gunina,  M. W. D. Hanson-Heine,  
 P. H. P. Harbach,  A. W. Hauser,  M. F. Herbst,  M. Hernandez Vera,  
 M. Hodecker,  Z. C. Holden,  S. Houck,  Xunkun Huang,  Kerwin Hui,  
 B. C. Huynh,  M. Ivanov,  Hyunjun Ji,  Hanjie Jiang,  B. Kaduk,  S. Kaehler,  
 K. Khistyaev,  Jaehoon Kim,  P. Klunzinger,  Z. Koczor-Benda,  
 Joong Hoon Koh,  D. Kosenkov,  L. Koulias,  T. Kowalczyk,  C. M. Krauter,  
 K. Kue,  A. Kunitsa,  T. Kus,  A. Landau,  K. V. Lawler,  D. Lefrancois,  
 S. Lehtola,  Rain Li,  Yi-Pei Li,  Jiashu Liang,  M. Liebenthal,  
 Hung-Hsuan Lin,  You-Sheng Lin,  Fenglai Liu,  Kuan-Yu Liu,  
 M. Loipersberger,  A. Luenser,  A. Manjanath,  P. Manohar,  E. Mansoor,  
 S. F. Manzer,  Shan-Ping Mao,  A. V. Marenich,  T. Markovich,  S. Mason,  
 S. A. Maurer,  P. F. McLaughlin,  M. F. S. J. Menger,  J.-M. Mewes,  
 S. A. Mewes,  P. Morgante,  J. W. Mullinax,  K. J. Oosterbaan,  G. Paran,  
 Alexander C. Paul,  Suranjan K. Paul,  F. Pavosevic,  Zheng Pei,  S. Prager,  
 E. I. Proynov,  E. Ramos,  B. Rana,  A. E. Rask,  A. Rettig,  R. M. Richard,  
 F. Rob,  E. Rossomme,  T. Scheele,  M. Scheurer,  M. Schneider,  
 N. Sergueev,  S. M. Sharada,  W. Skomorowski,  D. W. Small,  C. J. Stein,  
 Yu-Chuan Su,  E. J. Sundstrom,  Zhen Tao,  J. Thirman,  T. Tsuchimochi,  
 N. M. Tubman,  S. P. Veccham,  O. Vydrov,  J. Wenzel,  J. Witte,  A. Yamada,  
 Kun Yao,  S. Yeganeh,  S. R. Yost,  A. Zech,  Igor Ying Zhang,  Xing Zhang,  
 Yu Zhang,  D. Zuev,  A. Aspuru-Guzik,  A. T. Bell,  N. A. Besley,  
 K. B. Bravaya,  B. R. Brooks,  D. Casanova,  Jeng-Da Chai,  S. Coriani,  
 C. J. Cramer,  A. E. DePrince, III,  R. A. DiStasio Jr.,  A. Dreuw,  
 B. D. Dunietz,  T. R. Furlani,  W. A. Goddard III,  S. Grimme,  
 S. Hammes-Schiffer,  T. Head-Gordon,  W. J. Hehre,  Chao-Ping Hsu,  
 T.-C. Jagau,  Yousung Jung,  A. Klamt,  Jing Kong,  D. S. Lambrecht,  
 WanZhen Liang,  N. J. Mayhall,  C. W. McCurdy,  J. B. Neaton,  T. Neudecker,  
 C. Ochsenfeld,  J. A. Parkhill,  R. Peverati,  V. A. Rassolov,  Yihan Shao,  
 L. V. Slipchenko,  R. P. Steele,  J. E. Subotnik,  A. J. W. Thom,  
 A. Tkatchenko,  D. G. Truhlar,  T. Van Voorhis,  T. A. Wesolowski,  
 K. B. Whaley,  H. L. Woodcock III,  P. M. Zimmerman,  S. Faraji,  
 P. M. W. Gill,  M. Head-Gordon,  J. M. Herbert,  A. I. Krylov

 Additional authors since Version 5.4.0: 
 Chandrima Chakravarty,  L. Cunha,  R. Kang,  Yongbin Kim,  S. Kotaru,  
 Shaozhi Li,  Xiangyuan Li,  F. Matz,  A. Molle,  V. Parravicini,  
 Haisheng Ren,  Hengyuan Shen,  Yingli Su,  Hung-Yi Tsai,  C. Utku,  
 Fang Wang,  Jeff Yang,  F. Zeller

 Contributors to earlier versions of Q-Chem not listed above: 
 R. D. Adamson,  B. Austin,  R. Baer,  J. Baker,  G. J. O. Beran,  
 K. Brandhorst,  S. T. Brown,  E. F. C. Byrd,  Arup K. Chakraborty,  
 G. K. L. Chan,  Chun-Min Chang,  Yunqing Chen,  C.-L. Cheng,  
 Siu Hung Chien,  D. M. Chipman,  D. L. Crittenden,  H. Dachsel,  
 R. J. Doerksen,  A. D. Dutoi,  R. G. Edgar,  J. Fosso-Tande,  
 L. Fusti-Molnar,  D. Ghosh,  A. Ghysels,  A. Golubeva-Zadorozhnaya,  
 J. Gonthier,  M. S. Gordon,  S. R. Gwaltney,  G. Hawkins,  J. E. Herr,  
 A. Heyden,  S. Hirata,  E. G. Hohenstein,  G. Kedziora,  F. J. Keil,  
 C. Kelley,  Jihan Kim,  R. A. King,  R. Z. Khaliullin,  P. P. Korambath,  
 W. Kurlancheek,  A. Laurent,  A. M. Lee,  M. S. Lee,  S. V. Levchenko,  
 Ching Yeh Lin,  D. Liotard,  E. Livshits,  R. C. Lochan,  I. Lotan,  
 L. A. Martinez-Martinez,  P. E. Maslen,  N. Nair,  D. P. O'Neill,  
 D. Neuhauser,  E. Neuscamman,  C. M. Oana,  R. Olivares-Amaya,  R. Olson,  
 T. M. Perrine,  B. Peters,  P. A. Pieniazek,  A. Prociuk,  Y. M. Rhee,  
 J. Ritchie,  M. A. Rohrdanz,  E. Rosta,  N. J. Russ,  H. F. Schaefer III,  
 M. W. Schmidt,  N. E. Schultz,  S. Sharma,  N. Shenvi,  C. D. Sherrill,  
 A. C. Simmonett,  A. Sodt,  T. Stein,  D. Stuck,  K. S. Thanthiriwatte,  
 V. Vanovschi,  L. Vogt,  Tao Wang,  A. Warshel,  M. A. Watson,  
 C. F. Williams,  Q. Wu,  X. Xu,  Jun Yang,  W. Zhang,  Yan Zhao

   Please cite Q-Chem as follows:
  "Software for the frontiers of quantum chemistry:
   An overview of developments in the Q-Chem 5 package"
   J. Chem. Phys. 155, 084801 (2021)
   https://doi.org/10.1063/5.0055522 (open access)

 Q-Chem 5.4.2 for Intel X86 EM64T Linux

 Parts of Q-Chem use Armadillo 9.900.5 (Nocturnal Misbehaviour).
 http://arma.sourceforge.net/

 Q-Chem begins on Fri Aug 12 12:44:29 2022  

 Host: 
0

     Scratch files written to /home/a/aspuru/seifridm/acdc_laser/descriptor_computation/qchem246517//
 Dec1321 |scratch|qcdevops|jenkins|workspace|build_RNUM 6959   
 Processing $rem in /gpfs/fs1/scinet/niagara/software/commercial/qc54/config/preferences:
 Processing $rem in /home/a/aspuru/seifridm/.qchemrc:

 Checking the input file for inconsistencies... 	...done.

--------------------------------------------------------------
User input:
--------------------------------------------------------------
$molecule
0 1
C           -4.16626667430000       -0.98756832030000       -0.08718719380000
C           -2.95272051970000       -1.19726258790000        0.40401538750000
C           -1.81079578940000       -0.29782300450000        0.24608556750000
C           -1.98289771400000        1.07563341470000        0.09746664510000
C           -0.88102043740000        1.90445484170000       -0.00753172560000
Cl          -1.11566028630000        3.60723852780000       -0.18695725820000
C            0.40603683920000        1.40134234840000        0.04320800680000
C            0.60669750700000        0.02904643410000        0.18736564000000
C            1.92498179450000       -0.58024509860000        0.25913812660000
C            3.10493467300000       -0.01387944260000        0.06070547660000
F            3.36394599380000        1.24794460320000       -0.25851439600000
F            4.25381619860000       -0.67952390990000        0.14947933790000
C           -0.50982399290000       -0.81918731200000        0.28532072800000
O           -0.31037794960000       -2.17243538860000        0.43700690950000
C           -0.51539827550000       -2.94049081150000       -0.74437824100000
C           -0.37448103070000       -4.40890984040000       -0.38335146500000
H           -4.96571193350000       -1.69042770910000        0.07183748920000
H           -4.40615530770000       -0.11923244220000       -0.67746104230000
H           -2.74076752290000       -2.09900448350000        0.96397330560000
H           -2.97565630010000        1.49549253670000        0.08994993810000
H            1.24251159790000        2.07603182760000       -0.02376493210000
H            1.93903644970000       -1.63197601420000        0.50623543740000
H            0.23280198880000       -2.65513821270000       -1.49887342490000
H           -1.51283550960000       -2.73752905330000       -1.15742732890000
H            0.61178384860000       -4.59825970820000        0.03133743040000
H           -0.51194522100000       -5.02033256970000       -1.27037228710000
H           -1.11906110420000       -4.68347191610000        0.35873757030000
$end

$rem
BASIS = 6-31G*
GUI = 2
METHOD = B3LYP
PRINT_ORBITALS false
MOLDEN_FORMAT false
$end
--------------------------------------------------------------
 ----------------------------------------------------------------
             Standard Nuclear Orientation (Angstroms)
    I     Atom           X                Y                Z
 ----------------------------------------------------------------
    1      C      -4.1804305721    -0.0477338087     0.0648196080
    2      C      -3.0419149589     0.4218746723    -0.4262974903
    3      C      -1.7295649341    -0.2007765174    -0.2590599642
    4      C      -1.5934484431    -1.5769966000    -0.0991231732
    5      C      -0.3356252899    -2.1400839140     0.0145286658
    6      Cl     -0.1875967404    -3.8510473574     0.2079538599
    7      C       0.8080615408    -1.3645963415    -0.0385052196
    8      C       0.7000355440     0.0168581024    -0.1939278902
    9      C       1.8507076721     0.9026359811    -0.2688420251
   10      C       3.1261766952     0.6135108164    -0.0638547606
   11      F       3.6573655684    -0.5569448954     0.2663874557
   12      F       4.0992268578     1.5165513082    -0.1565012197
   13      C      -0.5763938724     0.5956834520    -0.3007225838
   14      O      -0.6813570423     1.9582359221    -0.4635147149
   15      C      -1.0554712356     2.6710298588     0.7110391216
   16      C      -1.2423349826     4.1312583985     0.3378541819
   17      H      -5.1152455667     0.4591447955    -0.1013366410
   18      H      -4.2238539912    -0.9429590779     0.6620323791
   19      H      -3.0332381350     1.3437202914    -0.9935194542
   20      H      -2.4684678633    -2.2064070379    -0.0895676311
   21      H       1.7730486154    -1.8365244447     0.0354211032
   22      H       1.6321176923     1.9293331501    -0.5247792773
   23      H      -0.2651604649     2.5645951966     1.4690452377
   24      H      -1.9844857297     2.2552756024     1.1242757708
   25      H      -0.3211922396     4.5312502858    -0.0769243152
   26      H      -1.5148708504     4.7039749057     1.2194777407
   27      H      -2.0267653579     4.2280717195    -0.4076497569
 ----------------------------------------------------------------
 Molecular Point Group                 C1    NOp =  1
 Largest Abelian Subgroup              C1    NOp =  1
 Nuclear Repulsion Energy =        1175.48220706 hartrees
 There are       63 alpha and       63 beta electrons
 Requested basis set is 6-31G(d)
 There are 87 shells and 266 basis functions

 Total QAlloc Memory Limit   8000 MB
 Mega-Array Size       188 MB
 MEM_STATIC part       192 MB
 A cutoff of  1.0D-08 yielded   2345 shell pairs
 There are     23081 function pairs
 Smallest overlap matrix eigenvalue = 3.05E-04

 Scale SEOQF with 1.000000e-01/1.000000e-01/1.000000e+00

 Standard Electronic Orientation quadrupole field applied
 Nucleus-field energy     =     0.0000000484 hartrees
 Guess from superposition of atomic densities
 Warning:  Energy on first SCF cycle will be non-variational
 SAD guess density has 126.000000 electrons

 -----------------------------------------------------------------------
  General SCF calculation program by
  Eric Jon Sundstrom, Paul Horn, Yuezhi Mao, Dmitri Zuev, Alec White,
  David Stuck, Shaama M.S., Shane Yost, Joonho Lee, David Small,
  Daniel Levine, Susi Lehtola, Hugh Burton, Evgeny Epifanovsky,
  Bang C. Huynh
 -----------------------------------------------------------------------
 Exchange:     0.2000 Hartree-Fock + 0.0800 Slater + 0.7200 B88
 Correlation:  0.1900 VWN1RPA + 0.8100 LYP
 Using SG-1 standard quadrature grid
 A restricted SCF calculation will be
 performed using DIIS
 SCF converges when DIIS error is below 1.0e-05
 ---------------------------------------
  Cycle       Energy         DIIS error
 ---------------------------------------
    1   -1202.4204347831      4.79e-02  
    2   -1198.7083631988      5.21e-03  
    3   -1198.5358148878      6.82e-03  
    4   -1198.9337063891      1.22e-03  
    5   -1198.9461564819      4.26e-04  
    6   -1198.9474191041      1.89e-04  
    7   -1198.9477228552      5.88e-05  
    8   -1198.9477538690      1.77e-05  
    9   -1198.9477577693      4.90e-06  Convergence criterion met
 ---------------------------------------
 SCF time:   CPU 66.42s  wall 71.00s 
 SCF   energy in the final basis set =    -1198.9477577693
 Total energy in the final basis set =    -1198.9477577693
 
 --------------------------------------------------------------
 
                    Orbital Energies (a.u.)
 --------------------------------------------------------------
 
 Alpha MOs
 -- Occupied --
******** -24.7480 -24.7375 -19.1758 -10.3610 -10.2517 -10.2497 -10.2458
-10.2170 -10.2088 -10.2043 -10.2015 -10.2013 -10.1990 -10.1898 -10.1858
 -9.4649  -7.2286  -7.2192  -7.2189  -1.2894  -1.2282  -1.0670  -0.9002
 -0.8523  -0.8240  -0.7823  -0.7763  -0.7386  -0.7200  -0.6615  -0.6423
 -0.6276  -0.5989  -0.5753  -0.5733  -0.5387  -0.5284  -0.5227  -0.5020
 -0.4800  -0.4719  -0.4650  -0.4494  -0.4452  -0.4444  -0.4355  -0.4276
 -0.4210  -0.4035  -0.3981  -0.3904  -0.3892  -0.3732  -0.3633  -0.3490
 -0.3388  -0.3218  -0.3122  -0.2854  -0.2753  -0.2332  -0.2253
 -- Virtual --
 -0.0455  -0.0234   0.0233   0.0413   0.0755   0.0863   0.1142   0.1163
  0.1262   0.1267   0.1465   0.1508   0.1528   0.1638   0.1744   0.1759
  0.1833   0.1901   0.2091   0.2148   0.2263   0.2416   0.2755   0.2960
  0.2997   0.3289   0.3370   0.3772   0.3935   0.4051   0.4174   0.4224
  0.4425   0.4538   0.4813   0.4884   0.4981   0.5089   0.5199   0.5283
  0.5382   0.5405   0.5448   0.5550   0.5621   0.5669   0.5716   0.5945
  0.5962   0.6019   0.6091   0.6227   0.6253   0.6430   0.6506   0.6745
  0.6826   0.6886   0.7178   0.7466   0.7640   0.7766   0.7868   0.7989
  0.8163   0.8290   0.8407   0.8487   0.8572   0.8653   0.8734   0.8860
  0.8952   0.9066   0.9156   0.9260   0.9311   0.9376   0.9463   0.9711
  0.9755   0.9866   0.9870   1.0107   1.0384   1.0697   1.0789   1.0946
  1.1141   1.1343   1.1510   1.1613   1.1737   1.1955   1.2012   1.2177
  1.2279   1.2370   1.2475   1.2798   1.3162   1.3323   1.3395   1.3572
  1.3886   1.4026   1.4157   1.4191   1.4424   1.4542   1.4663   1.4784
  1.4862   1.5247   1.5358   1.5469   1.5862   1.6089   1.6173   1.6748
  1.6763   1.6941   1.7628   1.7686   1.7806   1.7872   1.8042   1.8079
  1.8286   1.8355   1.8690   1.8913   1.9043   1.9216   1.9336   1.9462
  1.9588   1.9748   1.9930   2.0060   2.0119   2.0269   2.0344   2.0537
  2.0649   2.0875   2.1206   2.1355   2.1570   2.1584   2.1792   2.2106
  2.2376   2.2474   2.2619   2.2789   2.2896   2.3216   2.3301   2.3387
  2.3499   2.4292   2.4389   2.4744   2.4940   2.5171   2.5256   2.5858
  2.6026   2.6071   2.6409   2.6677   2.6996   2.7148   2.7163   2.8110
  2.8492   2.8697   2.8880   2.9099   2.9653   3.0469   3.0817   3.1423
  3.1778   3.3351   3.4461   4.0605   4.0677   4.0970   4.1205   4.1331
  4.1666   4.2248   4.2480   4.2893   4.3916   4.4289   4.4737   4.5142
  4.7279   4.8848   5.3281
 --------------------------------------------------------------
 
          Ground-State Mulliken Net Atomic Charges

     Atom                 Charge (a.u.)
  ----------------------------------------
      1 C                    -0.344996
      2 C                    -0.126731
      3 C                     0.151502
      4 C                    -0.208586
      5 C                    -0.058674
      6 Cl                   -0.016391
      7 C                    -0.221438
      8 C                     0.167082
      9 C                    -0.298557
     10 C                     0.550410
     11 F                    -0.233269
     12 F                    -0.245673
     13 C                     0.205242
     14 O                    -0.534121
     15 C                    -0.038986
     16 C                    -0.457760
     17 H                     0.149181
     18 H                     0.148726
     19 H                     0.153773
     20 H                     0.152023
     21 H                     0.161377
     22 H                     0.180850
     23 H                     0.138395
     24 H                     0.148813
     25 H                     0.162279
     26 H                     0.153600
     27 H                     0.161929
  ----------------------------------------
  Sum of atomic charges =     0.000000

 -----------------------------------------------------------------
                    Cartesian Multipole Moments
 -----------------------------------------------------------------
    Charge (ESU x 10^10)
                 0.0000
    Dipole Moment (Debye)
         X      -1.6258      Y       2.3016      Z       0.8240
       Tot       2.9359
    Quadrupole Moments (Debye-Ang)
        XX     -94.2459     XY      -2.1113     YY     -97.7656
        XZ      -1.2356     YZ       2.0925     ZZ     -99.2837
    Octopole Moments (Debye-Ang^2)
       XXX      10.4485    XXY      -2.4151    XYY       9.9107
       YYY      39.1736    XXZ       1.1805    XYZ       1.3172
       YYZ       7.0387    XZZ      22.2524    YZZ       5.0280
       ZZZ       2.8196
    Hexadecapole Moments (Debye-Ang^3)
      XXXX   -2785.5183   XXXY      -7.4100   XXYY    -929.6230
      XYYY       1.0006   YYYY   -2835.7970   XXXZ      -5.8071
      XXYZ     -14.9513   XYYZ      -6.3620   YYYZ       9.1272
      XXZZ    -506.4928   XYZZ       4.5068   YYZZ    -505.8688
      XZZZ       2.5242   YZZZ      -5.8994   ZZZZ    -172.8639
 -----------------------------------------------------------------
 Total job time:  71.25s(wall), 66.93s(cpu) 
 Fri Aug 12 12:45:40 2022

        *************************************************************
        *                                                           *
        *  Thank you very much for using Q-Chem.  Have a nice day.  *
        *                                                           *
        *************************************************************


