27
 energy: -49.340338752458 gnorm: 0.000049845473 xtb: 6.5.0 (unknown)
C           -4.16626667430000       -0.98756832030000       -0.08718719380000
C           -2.95272051970000       -1.19726258790000        0.40401538750000
C           -1.81079578940000       -0.29782300450000        0.24608556750000
C           -1.98289771400000        1.07563341470000        0.09746664510000
C           -0.88102043740000        1.90445484170000       -0.00753172560000
Cl          -1.11566028630000        3.60723852780000       -0.18695725820000
C            0.40603683920000        1.40134234840000        0.04320800680000
C            0.60669750700000        0.02904643410000        0.18736564000000
C            1.92498179450000       -0.58024509860000        0.25913812660000
C            3.10493467300000       -0.01387944260000        0.06070547660000
F            3.36394599380000        1.24794460320000       -0.25851439600000
F            4.25381619860000       -0.67952390990000        0.14947933790000
C           -0.50982399290000       -0.81918731200000        0.28532072800000
O           -0.31037794960000       -2.17243538860000        0.43700690950000
C           -0.51539827550000       -2.94049081150000       -0.74437824100000
C           -0.37448103070000       -4.40890984040000       -0.38335146500000
H           -4.96571193350000       -1.69042770910000        0.07183748920000
H           -4.40615530770000       -0.11923244220000       -0.67746104230000
H           -2.74076752290000       -2.09900448350000        0.96397330560000
H           -2.97565630010000        1.49549253670000        0.08994993810000
H            1.24251159790000        2.07603182760000       -0.02376493210000
H            1.93903644970000       -1.63197601420000        0.50623543740000
H            0.23280198880000       -2.65513821270000       -1.49887342490000
H           -1.51283550960000       -2.73752905330000       -1.15742732890000
H            0.61178384860000       -4.59825970820000        0.03133743040000
H           -0.51194522100000       -5.02033256970000       -1.27037228710000
H           -1.11906110420000       -4.68347191610000        0.35873757030000
