22
 energy: -29.879461682100 gnorm: 0.000058135595 xtb: 6.4.1 (23d549d)
C         0.53920412580000    3.18828037410000   -0.28274835340000
C         0.91129164300000    2.04466386690000    0.27547679840000
C         0.18557247920000    0.78423913250000    0.12468993740000
C        -1.20746543330000    0.77645927130000    0.11069180760000
C        -1.90940591220000   -0.41495794430000    0.01345790340000
C        -3.40397284510000   -0.45368166620000   -0.02649748490000
C        -1.14995273280000   -1.58226285810000   -0.04731896690000
N         0.16351386990000   -1.60073453680000   -0.05304637620000
C         0.84363561280000   -0.45792663770000    0.01582156320000
C         2.29749362050000   -0.55919443710000   -0.06110725680000
C         2.94560126140000   -1.71760161520000   -0.02753273170000
H         1.09712075710000    4.09754427880000   -0.13753509920000
H        -0.32443522200000    3.25614762410000   -0.92356290600000
H         1.80077908380000    2.01203230040000    0.89091570260000
H        -1.74250497380000    1.71182706780000    0.20391225170000
H        -3.82724932770000    0.44583754610000    0.41479341650000
H        -3.78100260510000   -1.32384894360000    0.50670590710000
H        -3.74634828550000   -0.51969910390000   -1.05992063810000
H        -1.63034101470000   -2.55219511680000   -0.09536680410000
H         2.83932608890000    0.37011099590000   -0.16611787140000
H         2.40404382880000   -2.64247855410000    0.06849020390000
H         4.01857518730000   -1.77252146030000   -0.09643876280000
