
Running Job 1 of 1 fragments/A023/conf-0/spe_input.inp
qchem fragments/A023/conf-0/spe_input.inp_164327.0 /gpfs/fs0/scratch/a/aspuru/rhickman/descriptor_computation/qchem164327/ 0
/scinet/niagara/software/commercial/qc52/exe/qcprog.exe_s fragments/A023/conf-0/spe_input.inp_164327.0 /gpfs/fs0/scratch/a/aspuru/rhickman/descriptor_computation/qchem164327/
                  Welcome to Q-Chem
     A Quantum Leap Into The Future Of Chemistry


 Q-Chem 5.2, Q-Chem, Inc., Pleasanton, CA (2019)

 License issued to: SRG Alan Aspuru-Guzik, University of Toronto

 Yihan Shao,  Zhengting Gan,  E. Epifanovsky,  A. T. B. Gilbert,  M. Wormit,  
 J. Kussmann,  A. W. Lange,  A. Behn,  Jia Deng,  Xintian Feng,  D. Ghosh,  
 M. Goldey,  P. R. Horn,  L. D. Jacobson,  I. Kaliman,  T. Kus,  A. Landau,  
 Jie Liu,  E. I. Proynov,  R. M. Richard,  R. P. Steele,  E. J. Sundstrom,  
 H. L. Woodcock III,  P. M. Zimmerman,  D. Zuev,  B. Albrecht,  E. Alguire,  
 S. A. Baeppler,  D. Barton,  Z. Benda,  Y. A. Bernard,  E. J. Berquist,  
 K. B. Bravaya,  H. Burton,  D. Casanova,  Chun-Min Chang,  Yunqing Chen,  
 A. Chien,  K. D. Closser,  M. P. Coons,  S. Coriani,  S. Dasgupta,  
 A. L. Dempwolff,  M. Diedenhofen,  Hainam Do,  R. G. Edgar,  Po-Tung Fang,  
 S. Faraji,  S. Fatehi,  Qingguo Feng,  K. D. Fenk,  J. Fosso-Tande,  
 J. Gayvert,  Qinghui Ge,  A. Ghysels,  G. Gidofalvi,  J. Gomes,  
 J. Gonthier,  A. Gunina,  D. Hait,  M. W. D. Hanson-Heine,  
 P. H. P. Harbach,  A. W. Hauser,  M. F. Herbst,  J. E. Herr,  
 E. G. Hohenstein,  Z. C. Holden,  Kerwin Hui,  B. C. Huynh,  T.-C. Jagau,  
 Hyunjun Ji,  B. Kaduk,  K. Khistyaev,  Jaehoon Kim,  P. Klunzinger,  K. Koh,  
 D. Kosenkov,  L. Koulias,  T. Kowalczyk,  C. M. Krauter,  A. Kunitsa,  
 Ka Un Lao,  A. Laurent,  K. V. Lawler,  Joonho Lee,  D. Lefrancois,  
 S. Lehtola,  D. S. Levine,  Yi-Pei Li,  You-Sheng Lin,  Fenglai Liu,  
 E. Livshits,  A. Luenser,  P. Manohar,  E. Mansoor,  S. F. Manzer,  
 Shan-Ping Mao,  Yuezhi Mao,  N. Mardirossian,  A. V. Marenich,  
 T. Markovich,  L. A. Martinez-Martinez,  S. A. Maurer,  N. J. Mayhall,  
 S. C. McKenzie,  J.-M. Mewes,  P. Morgante,  A. F. Morrison,  
 J. W. Mullinax,  K. Nanda,  T. S. Nguyen-Beck,  R. Olivares-Amaya,  
 J. A. Parkhill,  Zheng Pei,  T. M. Perrine,  F. Plasser,  P. Pokhilko,  
 S. Prager,  A. Prociuk,  E. Ramos,  D. R. Rehn,  F. Rob,  M. Scheurer,  
 M. Schneider,  N. Sergueev,  S. M. Sharada,  S. Sharma,  D. W. Small,  
 T. Stauch,  T. Stein,  Yu-Chuan Su,  A. J. W. Thom,  A. Tkatchenko,  
 T. Tsuchimochi,  N. M. Tubman,  L. Vogt,  M. L. Vidal,  O. Vydrov,  
 M. A. Watson,  J. Wenzel,  M. de Wergifosse,  T. A. Wesolowski,  A. White,  
 J. Witte,  A. Yamada,  Jun Yang,  K. Yao,  S. Yeganeh,  S. R. Yost,  
 Zhi-Qiang You,  A. Zech,  Igor Ying Zhang,  Xing Zhang,  Yan Zhao,  
 Ying Zhu,  B. R. Brooks,  G. K. L. Chan,  C. J. Cramer,  M. S. Gordon,  
 W. J. Hehre,  A. Klamt,  M. W. Schmidt,  C. D. Sherrill,  D. G. Truhlar,  
 A. Aspuru-Guzik,  R. Baer,  A. T. Bell,  N. A. Besley,  Jeng-Da Chai,  
 A. E. DePrince, III,  R. A. DiStasio Jr.,  A. Dreuw,  B. D. Dunietz,  
 T. R. Furlani,  Chao-Ping Hsu,  Yousung Jung,  Jing Kong,  D. S. Lambrecht,  
 WanZhen Liang,  C. Ochsenfeld,  V. A. Rassolov,  L. V. Slipchenko,  
 J. E. Subotnik,  T. Van Voorhis,  J. M. Herbert,  A. I. Krylov,  
 P. M. W. Gill,  M. Head-Gordon

 Contributors to earlier versions of Q-Chem not listed above: 
 R. D. Adamson,  B. Austin,  J. Baker,  G. J. O. Beran,  K. Brandhorst,  
 S. T. Brown,  E. F. C. Byrd,  A. K. Chakraborty,  C.-L. Cheng,  
 Siu Hung Chien,  D. M. Chipman,  D. L. Crittenden,  H. Dachsel,  
 R. J. Doerksen,  A. D. Dutoi,  L. Fusti-Molnar,  W. A. Goddard III,  
 A. Golubeva-Zadorozhnaya,  S. R. Gwaltney,  G. Hawkins,  A. Heyden,  
 S. Hirata,  G. Kedziora,  F. J. Keil,  C. Kelley,  Jihan Kim,  R. A. King,  
 R. Z. Khaliullin,  P. P. Korambath,  W. Kurlancheek,  A. M. Lee,  M. S. Lee,  
 S. V. Levchenko,  Ching Yeh Lin,  D. Liotard,  R. C. Lochan,  I. Lotan,  
 P. E. Maslen,  N. Nair,  D. P. O'Neill,  D. Neuhauser,  E. Neuscamman,  
 C. M. Oana,  R. Olson,  B. Peters,  R. Peverati,  P. A. Pieniazek,  
 Y. M. Rhee,  J. Ritchie,  M. A. Rohrdanz,  E. Rosta,  N. J. Russ,  
 H. F. Schaefer III,  N. E. Schultz,  N. Shenvi,  A. C. Simmonett,  A. Sodt,  
 D. Stuck,  K. S. Thanthiriwatte,  V. Vanovschi,  Tao Wang,  A. Warshel,  
 C. F. Williams,  Q. Wu,  X. Xu,  W. Zhang

 Please cite Q-Chem as follows:
 Y. Shao et al., Mol. Phys. 113, 184-215 (2015)
 DOI: 10.1080/00268976.2014.952696

 Q-Chem 5.2.1 for Intel X86 EM64T Linux

 Parts of Q-Chem use Armadillo 8.300.2 (Tropical Shenanigans).
 http://arma.sourceforge.net/

 Q-Chem begins on Mon Feb  7 18:21:24 2022  

Host: 
0

     Scratch files written to /gpfs/fs0/scratch/a/aspuru/rhickman/descriptor_computation/qchem164327//
 Jul1719 |scratch|qcdevops|jenkins|workspace|build_RNUM -1
Processing $rem in /scinet/niagara/software/commercial/qc52/config/preferences:
	 MEM_TOTAL  4000 
NAlpha2: 190
NElect   190
Mult     1

Checking the input file for inconsistencies... 	...done.

--------------------------------------------------------------
User input:
--------------------------------------------------------------
$molecule
0 1
C         0.66148474150000   -4.38541901550000    1.94346975520000
O         1.64720132730000   -4.32759326500000    0.93989284630000
C         1.88909389080000   -3.13867096000000    0.32992641410000
C         1.23708550770000   -1.94985511800000    0.63175084160000
C         1.53915856490000   -0.78782141930000   -0.07338382590000
N         0.87709662440000    0.42293744380000    0.21726979530000
C         1.74688716650000    1.50727038670000    0.45798227360000
C         2.78483470020000    1.76870241480000   -0.43521287860000
S         3.00973454740000    0.70523592310000   -1.83587182570000
C         3.64428131910000    2.83594973230000   -0.22687479000000
C         3.48339916930000    3.64084632750000    0.88569248280000
C         2.48881505420000    3.35596258630000    1.80771568730000
C         1.63362471090000    2.28830362690000    1.60352543770000
C        -0.49567906330000    0.56468046160000    0.14010200340000
C        -1.11076797770000    1.80614384490000    0.34259477500000
C        -2.47793055540000    1.93697633660000    0.26248957320000
C        -3.30364341940000    0.84897106320000   -0.03160512720000
C        -4.73767209480000    1.05637320730000   -0.07420946960000
C        -5.69569588340000    0.16299756200000   -0.27699496740000
F        -5.56738802790000   -1.14465612920000   -0.48868166990000
F        -6.99397473030000    0.47465606760000   -0.29077685630000
C        -2.68393706600000   -0.37518625950000   -0.29287971830000
C        -1.31653859880000   -0.51236894730000   -0.21723365110000
C         2.55302546270000   -0.80461519970000   -1.02412304130000
C         3.21459178170000   -1.98875815370000   -1.31818615540000
C         2.87364802380000   -3.15020911810000   -0.66291763140000
H         0.63639004270000   -5.42349459680000    2.27029697840000
H        -0.32353761410000   -4.10455843240000    1.55729763100000
H         0.91586606620000   -3.74514233710000    2.79415348080000
H         0.48660314170000   -1.89809255530000    1.40432760010000
H         4.42820765760000    3.02691842120000   -0.94311205710000
H         4.14531250430000    4.47849953860000    1.04194629280000
H         2.37984106360000    3.96405154080000    2.69277174000000
H         0.86736843290000    2.05388782670000    2.32726860070000
H        -0.51252650590000    2.68139662090000    0.53999065280000
H        -2.92060876770000    2.90845321220000    0.42822410500000
H        -5.08306355230000    2.06783914370000    0.08554769710000
H        -3.27256374110000   -1.23406974810000   -0.57080958680000
H        -0.87636310350000   -1.46477732470000   -0.46658379080000
H         3.98776840640000   -1.98816110800000   -2.07013007880000
H         3.36657484090000   -4.08171443200000   -0.88726289490000
$end

$rem
BASIS = 6-31G*
GUI = 2
METHOD = B3LYP
PRINT_ORBITALS false
MOLDEN_FORMAT false
--------------------------------------------------------------
 ----------------------------------------------------------------
             Standard Nuclear Orientation (Angstroms)
    I     Atom           X                Y                Z
 ----------------------------------------------------------------
    1      C      -0.6124601879    -4.3825836328    -1.9065131781
    2      O      -1.5990041260    -4.3213198166    -0.9039537435
    3      C      -1.8396927434    -3.1308393544    -0.2965555491
    4      C      -1.1856511418    -1.9435866806    -0.6001287606
    5      C      -1.4866466640    -0.7797179059     0.1024354849
    6      N      -0.8225292275     0.4294849178    -0.1900010495
    7      C      -1.6904945480     1.5146248624    -0.4336473475
    8      C      -2.7288674866     1.7793536065     0.4580811428
    9      S      -2.9566169115     0.7189880741     1.8606293749
   10      C      -3.5865436806     2.8474566064     0.2468523223
   11      C      -3.4234569802     3.6499164264    -0.8671532868
   12      C      -2.4284558316     3.3617432158    -1.7877031293
   13      C      -1.5750327366     2.2932266769    -1.5806252163
   14      C       0.5503838254     0.5693509131    -0.1118582791
   15      C       1.1674934150     1.8095016454    -0.3162376876
   16      C       2.5347745446     1.9384712432    -0.2351411190
   17      C       3.3586081800     0.8498295182     0.0618542301
   18      C       4.7929027822     1.0551956702     0.1053600799
   19      C       5.7494183495     0.1608071555     0.3107833884
   20      F       5.6189827591    -1.1462349877     0.5249322486
   21      F       7.0481438671     0.4705730841     0.3251370749
   22      C       2.7368532085    -0.3728923285     0.3249769544
   23      C       1.3693227298    -0.5082029507     0.2483518229
   24      C      -2.5014031496    -0.7931361056     1.0522788405
   25      C      -3.1649886860    -1.9757171023     1.3480728009
   26      C      -2.8251670951    -3.1389621439     0.6954089619
   27      H      -0.5886038695    -5.4213384030    -2.2312686150
   28      H       0.3726244331    -4.1024173327    -1.5199957122
   29      H      -0.8651185531    -3.7436124374    -2.7586906515
   30      H      -0.4343893769    -1.8944587793    -1.3721198242
   31      H      -4.3708388429     3.0409974170     0.9619945599
   32      H      -4.0839873958     4.4882368967    -1.0256644139
   33      H      -2.3177757427     3.9679218895    -2.6738572113
   34      H      -0.8084650616     2.0562501843    -2.3032037647
   35      H       0.5707278925     2.6852462332    -0.5159067670
   36      H       2.9790406774     2.9089636816    -0.4023872992
   37      H       5.1399360362     2.0658326374    -0.0560765729
   38      H       3.3239547933    -1.2320944696     0.6051387497
   39      H       0.9275113411    -1.4594655653     0.4991780797
   40      H      -3.9388483946    -1.9724927480     2.0993070310
   41      H      -3.3196760106    -4.0692931600     0.9211409424
 ----------------------------------------------------------------
 Molecular Point Group                 C1    NOp =  1
 Largest Abelian Subgroup              C1    NOp =  1
 Nuclear Repulsion Energy =        2341.06465770 hartrees
 There are       95 alpha and       95 beta electrons
 Requested basis set is 6-31G(d)
 There are 135 shells and 424 basis functions

 Total QAlloc Memory Limit   4000 MB
 Mega-Array Size       188 MB
 MEM_STATIC part       192 MB
 A cutoff of  1.0D-08 yielded   4149 shell pairs
 There are     44142 function pairs
 Smallest overlap matrix eigenvalue = 3.61E-04

 Scale SEOQF with 1.000000e-02/1.000000e-02/1.000000e-01

 Standard Electronic Orientation quadrupole field applied
 Nucleus-field energy     =    -0.0000000069 hartrees
 Guess from superposition of atomic densities
 Warning:  Energy on first SCF cycle will be non-variational
 SAD guess density has 190.000000 electrons

 -----------------------------------------------------------------------
  General SCF calculation program by
  Eric Jon Sundstrom, Paul Horn, Yuezhi Mao, Dmitri Zuev, Alec White,
  David Stuck, Shaama M.S., Shane Yost, Joonho Lee, David Small,
  Daniel Levine, Susi Lehtola, Hugh Burton, Evgeny Epifanovsky,
  Bang C. Huynh
 -----------------------------------------------------------------------
 Exchange:     0.2000 Hartree-Fock + 0.0800 Slater + 0.7200 B88
 Correlation:  0.1900 VWN1RPA + 0.8100 LYP
 Using SG-1 standard quadrature grid
 A restricted SCF calculation will be
 performed using DIIS
 SCF converges when DIIS error is below 1.0e-05
 ---------------------------------------
  Cycle       Energy         DIIS error
 ---------------------------------------
    1   -1543.7949467611      3.99e-02  
    2   -1536.7160604485      3.89e-03  
    3   -1536.4576958827      5.15e-03  
    4   -1537.0299262478      1.25e-03  
    5   -1537.0613252893      5.07e-04  
    6   -1537.0666638856      2.17e-04  
    7   -1537.0677362730      5.97e-05  
    8   -1537.0678124518      1.93e-05  
    9   -1537.0678208144      5.49e-06  Convergence criterion met
 ---------------------------------------
 SCF time:   CPU 143.20s  wall 144.00s 
 SCF   energy in the final basis set =    -1537.0678208144
 Total energy in the final basis set =    -1537.0678208144
 
 --------------------------------------------------------------
 
                    Orbital Energies (a.u.)
 --------------------------------------------------------------
 
 Alpha MOs
 -- Occupied --
-88.8922 -24.7351 -24.7244 -19.1852 -14.3739 -10.3447 -10.2552 -10.2456
-10.2381 -10.2366 -10.2331 -10.2250 -10.2187 -10.2000 -10.1989 -10.1976
-10.1959 -10.1953 -10.1951 -10.1947 -10.1916 -10.1904 -10.1858 -10.1833
-10.1801 -10.1799  -7.9530  -5.9179  -5.9145  -5.9081  -1.2746  -1.2143
 -1.0763  -0.9891  -0.8757  -0.8718  -0.8530  -0.8118  -0.7972  -0.7741
 -0.7635  -0.7533  -0.7454  -0.7254  -0.7205  -0.6761  -0.6491  -0.6414
 -0.6212  -0.6139  -0.6009  -0.5985  -0.5710  -0.5631  -0.5515  -0.5441
 -0.5253  -0.5090  -0.5073  -0.4976  -0.4889  -0.4804  -0.4779  -0.4666
 -0.4561  -0.4506  -0.4488  -0.4462  -0.4385  -0.4318  -0.4299  -0.4222
 -0.4130  -0.4115  -0.4092  -0.4021  -0.3852  -0.3838  -0.3807  -0.3722
 -0.3656  -0.3592  -0.3517  -0.3427  -0.3342  -0.3311  -0.3263  -0.2906
 -0.2832  -0.2597  -0.2514  -0.2455  -0.2415  -0.2091  -0.1821
 -- Virtual --
 -0.0247  -0.0133  -0.0096  -0.0052   0.0043   0.0086   0.0321   0.0734
  0.0799   0.0927   0.0975   0.1097   0.1152   0.1271   0.1375   0.1402
  0.1444   0.1482   0.1520   0.1569   0.1603   0.1663   0.1713   0.1742
  0.1791   0.1862   0.1905   0.1982   0.1995   0.2107   0.2154   0.2319
  0.2431   0.2631   0.2699   0.2802   0.2930   0.2948   0.3088   0.3146
  0.3270   0.3284   0.3459   0.3499   0.3577   0.3702   0.3818   0.3864
  0.3950   0.4192   0.4263   0.4320   0.4553   0.4860   0.4954   0.5019
  0.5053   0.5115   0.5200   0.5267   0.5300   0.5326   0.5363   0.5428
  0.5464   0.5534   0.5593   0.5664   0.5680   0.5731   0.5764   0.5835
  0.5894   0.5907   0.5937   0.5966   0.5970   0.6018   0.6053   0.6082
  0.6104   0.6207   0.6233   0.6277   0.6354   0.6421   0.6480   0.6515
  0.6590   0.6637   0.6727   0.6797   0.6969   0.7071   0.7093   0.7332
  0.7438   0.7674   0.7839   0.7860   0.8026   0.8145   0.8234   0.8243
  0.8263   0.8318   0.8357   0.8367   0.8391   0.8508   0.8520   0.8568
  0.8641   0.8680   0.8830   0.8894   0.8928   0.8976   0.9074   0.9127
  0.9206   0.9283   0.9360   0.9448   0.9521   0.9625   0.9644   0.9726
  0.9856   0.9916   1.0093   1.0143   1.0160   1.0263   1.0472   1.0527
  1.0601   1.0721   1.0839   1.0995   1.1073   1.1188   1.1204   1.1389
  1.1536   1.1658   1.1709   1.1761   1.1818   1.1904   1.2006   1.2177
  1.2279   1.2407   1.2496   1.2537   1.2614   1.2732   1.2883   1.2991
  1.3158   1.3292   1.3501   1.3627   1.3705   1.3723   1.3831   1.3955
  1.4118   1.4275   1.4303   1.4380   1.4448   1.4524   1.4561   1.4671
  1.4692   1.4752   1.4775   1.4828   1.5029   1.5058   1.5173   1.5310
  1.5344   1.5541   1.5612   1.5990   1.6165   1.6470   1.6612   1.6751
  1.6885   1.7264   1.7521   1.7693   1.7870   1.7919   1.7977   1.8036
  1.8096   1.8171   1.8283   1.8375   1.8448   1.8487   1.8597   1.8714
  1.8838   1.8845   1.8902   1.9178   1.9197   1.9247   1.9438   1.9510
  1.9557   1.9609   1.9643   1.9785   1.9932   2.0010   2.0106   2.0220
  2.0372   2.0398   2.0474   2.0741   2.0786   2.0938   2.0972   2.1062
  2.1194   2.1238   2.1435   2.1490   2.1543   2.1596   2.1612   2.1711
  2.1766   2.1980   2.2059   2.2364   2.2461   2.2537   2.2664   2.2690
  2.2877   2.2998   2.3070   2.3146   2.3302   2.3368   2.3465   2.3525
  2.3674   2.3854   2.4331   2.4481   2.4844   2.5019   2.5236   2.5300
  2.5443   2.5542   2.5778   2.5964   2.6220   2.6330   2.6429   2.6538
  2.6595   2.6712   2.6768   2.6870   2.6968   2.7160   2.7245   2.7388
  2.7497   2.7582   2.7873   2.8018   2.8173   2.8276   2.8466   2.8674
  2.8978   2.9257   2.9393   2.9660   2.9934   3.0063   3.0629   3.1293
  3.1586   3.2275   3.2498   3.3368   3.4004   3.4630   3.4923   3.9714
  4.0574   4.0889   4.0976   4.1135   4.1193   4.1346   4.1367   4.1632
  4.1860   4.2072   4.2121   4.2814   4.3055   4.3479   4.3546   4.3895
  4.3970   4.4077   4.4886   4.5472   4.6989   4.7535   4.7896   4.8319
  5.2806
 --------------------------------------------------------------
 
          Ground-State Mulliken Net Atomic Charges

     Atom                 Charge (a.u.)
  ----------------------------------------
      1 C                    -0.218195
      2 O                    -0.504552
      3 C                     0.376065
      4 C                    -0.230347
      5 C                     0.269189
      6 N                    -0.690481
      7 C                     0.260747
      8 C                    -0.097238
      9 S                     0.166254
     10 C                    -0.177597
     11 C                    -0.110742
     12 C                    -0.147219
     13 C                    -0.144203
     14 C                     0.360168
     15 C                    -0.196930
     16 C                    -0.206482
     17 C                     0.198463
     18 C                    -0.298275
     19 C                     0.532232
     20 F                    -0.241135
     21 F                    -0.254605
     22 C                    -0.206398
     23 C                    -0.198249
     24 C                    -0.115062
     25 C                    -0.174969
     26 C                    -0.156517
     27 H                     0.173217
     28 H                     0.154699
     29 H                     0.154085
     30 H                     0.152483
     31 H                     0.147099
     32 H                     0.134319
     33 H                     0.135326
     34 H                     0.149525
     35 H                     0.148819
     36 H                     0.125824
     37 H                     0.154671
     38 H                     0.136005
     39 H                     0.149374
     40 H                     0.148853
     41 H                     0.141781
  ----------------------------------------
  Sum of atomic charges =     0.000000

 -----------------------------------------------------------------
                    Cartesian Multipole Moments
 -----------------------------------------------------------------
    Charge (ESU x 10^10)
                 0.0000
    Dipole Moment (Debye)
         X      -1.4848      Y       0.2160      Z      -2.3863
       Tot       2.8189
    Quadrupole Moments (Debye-Ang)
        XX    -161.7672     XY      -2.7231     YY    -138.2228
        XZ      -2.5335     YZ      -0.8231     ZZ    -150.3425
    Octopole Moments (Debye-Ang^2)
       XXX     -10.4981    XXY      26.2438    XYY      19.2478
       YYY     -11.2583    XXZ      10.0437    XYZ      12.4503
       YYZ     -32.9949    XZZ      22.2101    YZZ     -21.3413
       ZZZ     -14.8299
    Hexadecapole Moments (Debye-Ang^3)
      XXXX   -9333.4830   XXXY      -7.7084   XXYY   -2041.4334
      XYYY    -127.7365   YYYY   -4373.2270   XXXZ     -71.0767
      XXYZ     -47.8497   XYYZ      -0.4956   YYYZ      55.1269
      XXZZ   -1630.4059   XYZZ      -3.1771   YYZZ    -839.2123
      XZZZ      52.9267   YZZZ      20.8986   ZZZZ   -1051.2294
 -----------------------------------------------------------------
Archival summary:
1\1\nia1977.scinet.local\SP\ProcedureUnspecified\6-31G*\12112115\rhickman\MonFeb718:23:492022MonFeb718:23:492022\0\\#,ProcedureUnspecified,6-31G*,\\0,1\S\C,1,1.77296\C,2,1.38603,1,120.13\H,3,1.07889,2,119.147,1,1.92349,0\C,3,1.38259,2,119.807,1,-178.372,0\H,5,1.07898,3,119.809,2,-179.295,0\C,5,1.38581,3,119.949,2,1.8345,0\H,7,1.07934,5,120.146,3,178.114,0\C,7,1.38309,5,120.28,3,-1.60401,0\H,9,1.07977,7,120.492,5,179.041,0\C,9,1.39108,7,120.307,5,-1.29102,0\N,11,1.41076,9,121.457,7,-179.208,0\C,12,1.38223,11,122.89,9,58.3519,0\C,13,1.4002,12,121.274,11,-2.10362,0\H,14,1.07839,13,120.158,12,1.4907,0\C,14,1.37574,13,120.827,12,179.944,0\H,16,1.08037,14,118.932,13,179.747,0\C,16,1.39716,14,121.703,13,-0.486405,0\C,18,1.39673,16,117.366,14,-2.35884,0\H,19,1.07769,18,120.292,16,-177.089,0\C,19,1.37634,18,121.19,16,2.2043,0\H,21,1.07843,19,118.739,18,-177.5,0\C,12,1.41023,11,113.93,9,-127.84,0\C,23,1.39,12,119.589,11,-48.7578,0\C,24,1.38793,23,120.192,12,179.882,0\H,25,1.07853,24,119.272,23,178.993,0\C,25,1.37644,24,120.065,23,-0.375162,0\H,27,1.0775,25,121.134,24,179.153,0\C,23,1.3924,12,120.683,11,127.802,0\H,29,1.07832,23,118.278,12,-0.0841695,0\C,29,1.38906,23,120.157,12,179.538,0\O,31,1.35798,29,124.617,23,-178.631,0\C,32,1.40789,31,118.741,29,0.619573,0\H,33,1.0886,32,105.624,31,179.258,0\H,33,1.09466,32,111.593,31,60.6368,0\H,33,1.09468,32,111.544,31,-62.149,0\C,18,1.44958,16,118.648,14,178.829,0\H,37,1.08069,18,116.471,16,2.57672,0\C,37,1.32554,18,128.54,16,-176.981,0\F,39,1.33088,37,128.088,18,0.12207,0\F,39,1.33523,37,123.162,18,179.805,0\\\@

 Total job time:  145.41s(wall), 143.65s(cpu) 
 Mon Feb  7 18:23:49 2022

        *************************************************************
        *                                                           *
        *  Thank you very much for using Q-Chem.  Have a nice day.  *
        *                                                           *
        *************************************************************


