
Running Job 1 of 1 fragments/B029/conf-0/spe_input.inp
qchem fragments/B029/conf-0/spe_input.inp_168262.0 /gpfs/fs0/scratch/a/aspuru/rhickman/descriptor_computation/qchem168262/ 0
/scinet/niagara/software/commercial/qc52/exe/qcprog.exe_s fragments/B029/conf-0/spe_input.inp_168262.0 /gpfs/fs0/scratch/a/aspuru/rhickman/descriptor_computation/qchem168262/
                  Welcome to Q-Chem
     A Quantum Leap Into The Future Of Chemistry


 Q-Chem 5.2, Q-Chem, Inc., Pleasanton, CA (2019)

 License issued to: SRG Alan Aspuru-Guzik, University of Toronto

 Yihan Shao,  Zhengting Gan,  E. Epifanovsky,  A. T. B. Gilbert,  M. Wormit,  
 J. Kussmann,  A. W. Lange,  A. Behn,  Jia Deng,  Xintian Feng,  D. Ghosh,  
 M. Goldey,  P. R. Horn,  L. D. Jacobson,  I. Kaliman,  T. Kus,  A. Landau,  
 Jie Liu,  E. I. Proynov,  R. M. Richard,  R. P. Steele,  E. J. Sundstrom,  
 H. L. Woodcock III,  P. M. Zimmerman,  D. Zuev,  B. Albrecht,  E. Alguire,  
 S. A. Baeppler,  D. Barton,  Z. Benda,  Y. A. Bernard,  E. J. Berquist,  
 K. B. Bravaya,  H. Burton,  D. Casanova,  Chun-Min Chang,  Yunqing Chen,  
 A. Chien,  K. D. Closser,  M. P. Coons,  S. Coriani,  S. Dasgupta,  
 A. L. Dempwolff,  M. Diedenhofen,  Hainam Do,  R. G. Edgar,  Po-Tung Fang,  
 S. Faraji,  S. Fatehi,  Qingguo Feng,  K. D. Fenk,  J. Fosso-Tande,  
 J. Gayvert,  Qinghui Ge,  A. Ghysels,  G. Gidofalvi,  J. Gomes,  
 J. Gonthier,  A. Gunina,  D. Hait,  M. W. D. Hanson-Heine,  
 P. H. P. Harbach,  A. W. Hauser,  M. F. Herbst,  J. E. Herr,  
 E. G. Hohenstein,  Z. C. Holden,  Kerwin Hui,  B. C. Huynh,  T.-C. Jagau,  
 Hyunjun Ji,  B. Kaduk,  K. Khistyaev,  Jaehoon Kim,  P. Klunzinger,  K. Koh,  
 D. Kosenkov,  L. Koulias,  T. Kowalczyk,  C. M. Krauter,  A. Kunitsa,  
 Ka Un Lao,  A. Laurent,  K. V. Lawler,  Joonho Lee,  D. Lefrancois,  
 S. Lehtola,  D. S. Levine,  Yi-Pei Li,  You-Sheng Lin,  Fenglai Liu,  
 E. Livshits,  A. Luenser,  P. Manohar,  E. Mansoor,  S. F. Manzer,  
 Shan-Ping Mao,  Yuezhi Mao,  N. Mardirossian,  A. V. Marenich,  
 T. Markovich,  L. A. Martinez-Martinez,  S. A. Maurer,  N. J. Mayhall,  
 S. C. McKenzie,  J.-M. Mewes,  P. Morgante,  A. F. Morrison,  
 J. W. Mullinax,  K. Nanda,  T. S. Nguyen-Beck,  R. Olivares-Amaya,  
 J. A. Parkhill,  Zheng Pei,  T. M. Perrine,  F. Plasser,  P. Pokhilko,  
 S. Prager,  A. Prociuk,  E. Ramos,  D. R. Rehn,  F. Rob,  M. Scheurer,  
 M. Schneider,  N. Sergueev,  S. M. Sharada,  S. Sharma,  D. W. Small,  
 T. Stauch,  T. Stein,  Yu-Chuan Su,  A. J. W. Thom,  A. Tkatchenko,  
 T. Tsuchimochi,  N. M. Tubman,  L. Vogt,  M. L. Vidal,  O. Vydrov,  
 M. A. Watson,  J. Wenzel,  M. de Wergifosse,  T. A. Wesolowski,  A. White,  
 J. Witte,  A. Yamada,  Jun Yang,  K. Yao,  S. Yeganeh,  S. R. Yost,  
 Zhi-Qiang You,  A. Zech,  Igor Ying Zhang,  Xing Zhang,  Yan Zhao,  
 Ying Zhu,  B. R. Brooks,  G. K. L. Chan,  C. J. Cramer,  M. S. Gordon,  
 W. J. Hehre,  A. Klamt,  M. W. Schmidt,  C. D. Sherrill,  D. G. Truhlar,  
 A. Aspuru-Guzik,  R. Baer,  A. T. Bell,  N. A. Besley,  Jeng-Da Chai,  
 A. E. DePrince, III,  R. A. DiStasio Jr.,  A. Dreuw,  B. D. Dunietz,  
 T. R. Furlani,  Chao-Ping Hsu,  Yousung Jung,  Jing Kong,  D. S. Lambrecht,  
 WanZhen Liang,  C. Ochsenfeld,  V. A. Rassolov,  L. V. Slipchenko,  
 J. E. Subotnik,  T. Van Voorhis,  J. M. Herbert,  A. I. Krylov,  
 P. M. W. Gill,  M. Head-Gordon

 Contributors to earlier versions of Q-Chem not listed above: 
 R. D. Adamson,  B. Austin,  J. Baker,  G. J. O. Beran,  K. Brandhorst,  
 S. T. Brown,  E. F. C. Byrd,  A. K. Chakraborty,  C.-L. Cheng,  
 Siu Hung Chien,  D. M. Chipman,  D. L. Crittenden,  H. Dachsel,  
 R. J. Doerksen,  A. D. Dutoi,  L. Fusti-Molnar,  W. A. Goddard III,  
 A. Golubeva-Zadorozhnaya,  S. R. Gwaltney,  G. Hawkins,  A. Heyden,  
 S. Hirata,  G. Kedziora,  F. J. Keil,  C. Kelley,  Jihan Kim,  R. A. King,  
 R. Z. Khaliullin,  P. P. Korambath,  W. Kurlancheek,  A. M. Lee,  M. S. Lee,  
 S. V. Levchenko,  Ching Yeh Lin,  D. Liotard,  R. C. Lochan,  I. Lotan,  
 P. E. Maslen,  N. Nair,  D. P. O'Neill,  D. Neuhauser,  E. Neuscamman,  
 C. M. Oana,  R. Olson,  B. Peters,  R. Peverati,  P. A. Pieniazek,  
 Y. M. Rhee,  J. Ritchie,  M. A. Rohrdanz,  E. Rosta,  N. J. Russ,  
 H. F. Schaefer III,  N. E. Schultz,  N. Shenvi,  A. C. Simmonett,  A. Sodt,  
 D. Stuck,  K. S. Thanthiriwatte,  V. Vanovschi,  Tao Wang,  A. Warshel,  
 C. F. Williams,  Q. Wu,  X. Xu,  W. Zhang

 Please cite Q-Chem as follows:
 Y. Shao et al., Mol. Phys. 113, 184-215 (2015)
 DOI: 10.1080/00268976.2014.952696

 Q-Chem 5.2.1 for Intel X86 EM64T Linux

 Parts of Q-Chem use Armadillo 8.300.2 (Tropical Shenanigans).
 http://arma.sourceforge.net/

 Q-Chem begins on Mon Feb  7 18:33:23 2022  

Host: 
0

     Scratch files written to /gpfs/fs0/scratch/a/aspuru/rhickman/descriptor_computation/qchem168262//
 Jul1719 |scratch|qcdevops|jenkins|workspace|build_RNUM -1
Processing $rem in /scinet/niagara/software/commercial/qc52/config/preferences:
	 MEM_TOTAL  4000 
NAlpha2: 86
NElect   86
Mult     1

Checking the input file for inconsistencies... 	...done.

--------------------------------------------------------------
User input:
--------------------------------------------------------------
$molecule
0 1
C        -0.38529040270000   -2.87531561590000    0.53275903910000
C        -1.31562648870000   -2.16663448250000   -0.09356271670000
C        -1.40261778680000   -0.70953095540000   -0.10963788540000
C        -2.66440439780000   -0.11555066860000   -0.01337990980000
N        -2.87687468470000    1.18210180920000    0.04572122300000
C        -1.82493621180000    1.98417605200000    0.00015675340000
C        -0.52671859380000    1.52453553270000   -0.12848404110000
C        -0.29205567430000    0.15006535280000   -0.19148846610000
C         1.04442895210000   -0.38511468050000   -0.42220074380000
C         2.18707464800000    0.18130971670000   -0.06901073260000
F         2.35085043830000    1.30848880570000    0.61201620160000
F         3.38009532450000   -0.34518849810000   -0.33206383650000
H        -0.40468754670000   -3.95174088410000    0.53172000830000
H         0.40795299940000   -2.41301922780000    1.09624115140000
H        -2.13190092500000   -2.67503234010000   -0.59186737280000
H        -3.55049682150000   -0.73629022090000    0.03208093020000
H        -2.03926706420000    3.04281392610000    0.05328713890000
H         0.28849528940000    2.22548410490000   -0.20219247230000
H         1.11524362910000   -1.33333087560000   -0.93457119180000
$end

$rem
BASIS = 6-31G*
GUI = 2
METHOD = B3LYP
PRINT_ORBITALS false
MOLDEN_FORMAT false
--------------------------------------------------------------
 ----------------------------------------------------------------
             Standard Nuclear Orientation (Angstroms)
    I     Atom           X                Y                Z
 ----------------------------------------------------------------
    1      C      -0.3119511994    -2.8411212416     0.5098258916
    2      C      -1.2431970187    -2.1284326553    -0.1105686010
    3      C      -1.3323497465    -0.6713752976    -0.1140662099
    4      C      -2.5950394221    -0.0801225290    -0.0129792299
    5      N      -2.8094511384     1.2166537273     0.0572879522
    6      C      -1.7586953437     2.0206520650     0.0189122365
    7      C      -0.4597669679     1.5640679424    -0.1133861316
    8      C      -0.2230476103     0.1905436207    -0.1882152846
    9      C       1.1142831656    -0.3406377979    -0.4232252339
   10      C       2.2560056608     0.2244066721    -0.0648769971
   11      F       2.4179516310     1.3458971549     0.6259091442
   12      F       3.4498670949    -0.2980265285    -0.3321859335
   13      H      -0.3297485738    -3.9175248896     0.4994756784
   14      H       0.4804763544    -2.3825374798     1.0774742349
   15      H      -2.0586018825    -2.6337138234    -0.6134460380
   16      H      -3.4802187852    -0.7025461543     0.0269004486
   17      H      -1.9746111039     3.0784717779     0.0811419738
   18      H       0.3544211653     2.2668365556    -0.1808358842
   19      H       1.1866231552    -1.2842823879    -0.9437576160
 ----------------------------------------------------------------
 Molecular Point Group                 C1    NOp =  1
 Largest Abelian Subgroup              C1    NOp =  1
 Nuclear Repulsion Energy =         653.11180558 hartrees
 There are       43 alpha and       43 beta electrons
 Requested basis set is 6-31G(d)
 There are 62 shells and 194 basis functions

 Total QAlloc Memory Limit   4000 MB
 Mega-Array Size       188 MB
 MEM_STATIC part       192 MB
 A cutoff of  1.0D-08 yielded   1428 shell pairs
 There are     14706 function pairs
 Smallest overlap matrix eigenvalue = 5.92E-04

 Scale SEOQF with 1.000000e-01/1.000000e-01/1.000000e+00

 Standard Electronic Orientation quadrupole field applied
 Nucleus-field energy     =     0.0000000153 hartrees
 Guess from superposition of atomic densities
 Warning:  Energy on first SCF cycle will be non-variational
 SAD guess density has 86.000000 electrons

 -----------------------------------------------------------------------
  General SCF calculation program by
  Eric Jon Sundstrom, Paul Horn, Yuezhi Mao, Dmitri Zuev, Alec White,
  David Stuck, Shaama M.S., Shane Yost, Joonho Lee, David Small,
  Daniel Levine, Susi Lehtola, Hugh Burton, Evgeny Epifanovsky,
  Bang C. Huynh
 -----------------------------------------------------------------------
 Exchange:     0.2000 Hartree-Fock + 0.0800 Slater + 0.7200 B88
 Correlation:  0.1900 VWN1RPA + 0.8100 LYP
 Using SG-1 standard quadrature grid
 A restricted SCF calculation will be
 performed using DIIS
 SCF converges when DIIS error is below 1.0e-05
 ---------------------------------------
  Cycle       Energy         DIIS error
 ---------------------------------------
    1    -604.2768172159      5.76e-02  
    2    -601.3562647451      6.28e-03  
    3    -601.1804286359      8.83e-03  
    4    -601.5369507885      1.43e-03  
    5    -601.5458185755      4.63e-04  
    6    -601.5465315499      2.29e-04  
    7    -601.5467655222      6.58e-05  
    8    -601.5467852622      2.36e-05  
    9    -601.5467876487      5.38e-06  Convergence criterion met
 ---------------------------------------
 SCF time:   CPU 23.31s  wall 23.00s 
 SCF   energy in the final basis set =     -601.5467876487
 Total energy in the final basis set =     -601.5467876487
 
 --------------------------------------------------------------
 
                    Orbital Energies (a.u.)
 --------------------------------------------------------------
 
 Alpha MOs
 -- Occupied --
-24.7504 -24.7427 -14.3254 -10.3662 -10.2251 -10.2211 -10.2199 -10.2095
-10.2082 -10.2036 -10.1977 -10.1929  -1.2931  -1.2324  -0.9502  -0.8521
 -0.8067  -0.7712  -0.7463  -0.6660  -0.6437  -0.6247  -0.5878  -0.5682
 -0.5445  -0.5272  -0.5050  -0.4974  -0.4719  -0.4536  -0.4475  -0.4418
 -0.4297  -0.4275  -0.4076  -0.4017  -0.3892  -0.3600  -0.3221  -0.3064
 -0.2554  -0.2521  -0.2343
 -- Virtual --
 -0.0468  -0.0280   0.0301   0.0481   0.1034   0.1105   0.1235   0.1305
  0.1522   0.1611   0.1717   0.1768   0.1951   0.2023   0.2474   0.2913
  0.3075   0.3229   0.3447   0.3615   0.3947   0.3990   0.4598   0.4652
  0.4951   0.5126   0.5142   0.5282   0.5342   0.5498   0.5688   0.5787
  0.5909   0.5957   0.6024   0.6137   0.6257   0.6471   0.6579   0.6626
  0.6853   0.7000   0.7222   0.7616   0.7725   0.8247   0.8269   0.8427
  0.8554   0.8616   0.8682   0.8724   0.8886   0.9263   0.9365   0.9535
  0.9756   0.9986   1.0125   1.0347   1.0716   1.0896   1.1121   1.1233
  1.1680   1.1828   1.1876   1.2039   1.2156   1.2189   1.2698   1.2897
  1.3369   1.3480   1.3829   1.4196   1.4263   1.4356   1.4663   1.4898
  1.5038   1.5120   1.5186   1.5505   1.5873   1.6470   1.6753   1.7065
  1.7192   1.7516   1.7874   1.8007   1.8073   1.8325   1.8579   1.8706
  1.8743   1.8813   1.9565   1.9637   1.9753   2.0023   2.0126   2.0169
  2.0495   2.0736   2.1278   2.1308   2.1412   2.1970   2.2079   2.2183
  2.2616   2.2815   2.3009   2.3342   2.3677   2.3765   2.4059   2.4759
  2.5107   2.5271   2.5667   2.6067   2.6256   2.6424   2.6789   2.7241
  2.7391   2.7538   2.8182   2.8658   2.9269   2.9665   3.0142   3.0946
  3.1464   3.2919   3.4470   4.0640   4.0884   4.1047   4.1408   4.1638
  4.2032   4.2802   4.3657   4.4031   4.6912   4.7875   5.2376
 --------------------------------------------------------------
 
          Ground-State Mulliken Net Atomic Charges

     Atom                 Charge (a.u.)
  ----------------------------------------
      1 C                    -0.337711
      2 C                    -0.141308
      3 C                     0.074887
      4 C                    -0.009250
      5 N                    -0.403874
      6 C                     0.038329
      7 C                    -0.196301
      8 C                     0.150495
      9 C                    -0.318200
     10 C                     0.557694
     11 F                    -0.233463
     12 F                    -0.243347
     13 H                     0.150798
     14 H                     0.160025
     15 H                     0.143904
     16 H                     0.140667
     17 H                     0.142334
     18 H                     0.142182
     19 H                     0.182139
  ----------------------------------------
  Sum of atomic charges =     0.000000

 -----------------------------------------------------------------
                    Cartesian Multipole Moments
 -----------------------------------------------------------------
    Charge (ESU x 10^10)
                 0.0000
    Dipole Moment (Debye)
         X       1.1031      Y      -1.4040      Z      -0.4032
       Tot       1.8304
    Quadrupole Moments (Debye-Ang)
        XX     -74.8735     XY       4.3057     YY     -60.7929
        XZ       0.9475     YZ      -0.1059     ZZ     -67.9983
    Octopole Moments (Debye-Ang^2)
       XXX      55.4659    XXY     -16.7195    XYY      12.9399
       YYY       6.8257    XXZ      -1.6487    XYZ      -3.5465
       YYZ      -0.0201    XZZ      18.2035    YZZ       2.4016
       ZZZ       3.0787
    Hexadecapole Moments (Debye-Ang^3)
      XXXX   -1659.7378   XXXY      92.0834   XXYY    -422.2208
      XYYY      10.9689   YYYY    -866.6795   XXXZ      12.6904
      XXYZ       3.3675   XYYZ       5.7371   YYYZ       5.7328
      XXZZ    -275.3201   XYZZ       3.3959   YYZZ    -184.6558
      XZZZ       4.9951   YZZZ      10.6117   ZZZZ    -106.5102
 -----------------------------------------------------------------
Archival summary:
1\1\nia1977.scinet.local\SP\ProcedureUnspecified\6-31G*\2197\rhickman\MonFeb718:33:462022MonFeb718:33:462022\0\\#,ProcedureUnspecified,6-31G*,\\0,1\F\C,1,1.32708\C,2,1.32334,1,127.378\H,3,1.08012,2,116.472,1,-177.036,0\F,2,1.3303,1,109.084,3,-178.363,0\C,3,1.45803,2,126.309,1,3.25997,0\C,6,1.39578,3,121.514,2,29.5063,0\H,7,1.07765,6,120.68,3,-2.98756,0\C,7,1.38318,6,119.29,3,175.573,0\H,9,1.08142,7,121.057,6,179.899,0\N,9,1.32362,7,123.213,6,-1.16011,0\C,11,1.31626,9,117.877,7,1.12844,0\H,12,1.08284,11,115.542,9,179.696,0\C,12,1.39792,11,124.589,9,0.575295,0\C,14,1.45979,12,118.5,11,176.727,0\H,15,1.08309,14,114.743,12,35.6145,0\C,15,1.32666,14,125.464,12,-140.284,0\H,17,1.0766,15,121.4,14,177.68,0\H,17,1.07725,15,122.282,14,-0.161445,0\\\@

 Total job time:  23.55s(wall), 23.46s(cpu) 
 Mon Feb  7 18:33:46 2022

        *************************************************************
        *                                                           *
        *  Thank you very much for using Q-Chem.  Have a nice day.  *
        *                                                           *
        *************************************************************


