
Running Job 1 of 1 fragments/A023/conf-3/spe_input.inp
qchem fragments/A023/conf-3/spe_input.inp_162739.0 /gpfs/fs0/scratch/a/aspuru/rhickman/descriptor_computation/qchem162739/ 0
/scinet/niagara/software/commercial/qc52/exe/qcprog.exe_s fragments/A023/conf-3/spe_input.inp_162739.0 /gpfs/fs0/scratch/a/aspuru/rhickman/descriptor_computation/qchem162739/
                  Welcome to Q-Chem
     A Quantum Leap Into The Future Of Chemistry


 Q-Chem 5.2, Q-Chem, Inc., Pleasanton, CA (2019)

 License issued to: SRG Alan Aspuru-Guzik, University of Toronto

 Yihan Shao,  Zhengting Gan,  E. Epifanovsky,  A. T. B. Gilbert,  M. Wormit,  
 J. Kussmann,  A. W. Lange,  A. Behn,  Jia Deng,  Xintian Feng,  D. Ghosh,  
 M. Goldey,  P. R. Horn,  L. D. Jacobson,  I. Kaliman,  T. Kus,  A. Landau,  
 Jie Liu,  E. I. Proynov,  R. M. Richard,  R. P. Steele,  E. J. Sundstrom,  
 H. L. Woodcock III,  P. M. Zimmerman,  D. Zuev,  B. Albrecht,  E. Alguire,  
 S. A. Baeppler,  D. Barton,  Z. Benda,  Y. A. Bernard,  E. J. Berquist,  
 K. B. Bravaya,  H. Burton,  D. Casanova,  Chun-Min Chang,  Yunqing Chen,  
 A. Chien,  K. D. Closser,  M. P. Coons,  S. Coriani,  S. Dasgupta,  
 A. L. Dempwolff,  M. Diedenhofen,  Hainam Do,  R. G. Edgar,  Po-Tung Fang,  
 S. Faraji,  S. Fatehi,  Qingguo Feng,  K. D. Fenk,  J. Fosso-Tande,  
 J. Gayvert,  Qinghui Ge,  A. Ghysels,  G. Gidofalvi,  J. Gomes,  
 J. Gonthier,  A. Gunina,  D. Hait,  M. W. D. Hanson-Heine,  
 P. H. P. Harbach,  A. W. Hauser,  M. F. Herbst,  J. E. Herr,  
 E. G. Hohenstein,  Z. C. Holden,  Kerwin Hui,  B. C. Huynh,  T.-C. Jagau,  
 Hyunjun Ji,  B. Kaduk,  K. Khistyaev,  Jaehoon Kim,  P. Klunzinger,  K. Koh,  
 D. Kosenkov,  L. Koulias,  T. Kowalczyk,  C. M. Krauter,  A. Kunitsa,  
 Ka Un Lao,  A. Laurent,  K. V. Lawler,  Joonho Lee,  D. Lefrancois,  
 S. Lehtola,  D. S. Levine,  Yi-Pei Li,  You-Sheng Lin,  Fenglai Liu,  
 E. Livshits,  A. Luenser,  P. Manohar,  E. Mansoor,  S. F. Manzer,  
 Shan-Ping Mao,  Yuezhi Mao,  N. Mardirossian,  A. V. Marenich,  
 T. Markovich,  L. A. Martinez-Martinez,  S. A. Maurer,  N. J. Mayhall,  
 S. C. McKenzie,  J.-M. Mewes,  P. Morgante,  A. F. Morrison,  
 J. W. Mullinax,  K. Nanda,  T. S. Nguyen-Beck,  R. Olivares-Amaya,  
 J. A. Parkhill,  Zheng Pei,  T. M. Perrine,  F. Plasser,  P. Pokhilko,  
 S. Prager,  A. Prociuk,  E. Ramos,  D. R. Rehn,  F. Rob,  M. Scheurer,  
 M. Schneider,  N. Sergueev,  S. M. Sharada,  S. Sharma,  D. W. Small,  
 T. Stauch,  T. Stein,  Yu-Chuan Su,  A. J. W. Thom,  A. Tkatchenko,  
 T. Tsuchimochi,  N. M. Tubman,  L. Vogt,  M. L. Vidal,  O. Vydrov,  
 M. A. Watson,  J. Wenzel,  M. de Wergifosse,  T. A. Wesolowski,  A. White,  
 J. Witte,  A. Yamada,  Jun Yang,  K. Yao,  S. Yeganeh,  S. R. Yost,  
 Zhi-Qiang You,  A. Zech,  Igor Ying Zhang,  Xing Zhang,  Yan Zhao,  
 Ying Zhu,  B. R. Brooks,  G. K. L. Chan,  C. J. Cramer,  M. S. Gordon,  
 W. J. Hehre,  A. Klamt,  M. W. Schmidt,  C. D. Sherrill,  D. G. Truhlar,  
 A. Aspuru-Guzik,  R. Baer,  A. T. Bell,  N. A. Besley,  Jeng-Da Chai,  
 A. E. DePrince, III,  R. A. DiStasio Jr.,  A. Dreuw,  B. D. Dunietz,  
 T. R. Furlani,  Chao-Ping Hsu,  Yousung Jung,  Jing Kong,  D. S. Lambrecht,  
 WanZhen Liang,  C. Ochsenfeld,  V. A. Rassolov,  L. V. Slipchenko,  
 J. E. Subotnik,  T. Van Voorhis,  J. M. Herbert,  A. I. Krylov,  
 P. M. W. Gill,  M. Head-Gordon

 Contributors to earlier versions of Q-Chem not listed above: 
 R. D. Adamson,  B. Austin,  J. Baker,  G. J. O. Beran,  K. Brandhorst,  
 S. T. Brown,  E. F. C. Byrd,  A. K. Chakraborty,  C.-L. Cheng,  
 Siu Hung Chien,  D. M. Chipman,  D. L. Crittenden,  H. Dachsel,  
 R. J. Doerksen,  A. D. Dutoi,  L. Fusti-Molnar,  W. A. Goddard III,  
 A. Golubeva-Zadorozhnaya,  S. R. Gwaltney,  G. Hawkins,  A. Heyden,  
 S. Hirata,  G. Kedziora,  F. J. Keil,  C. Kelley,  Jihan Kim,  R. A. King,  
 R. Z. Khaliullin,  P. P. Korambath,  W. Kurlancheek,  A. M. Lee,  M. S. Lee,  
 S. V. Levchenko,  Ching Yeh Lin,  D. Liotard,  R. C. Lochan,  I. Lotan,  
 P. E. Maslen,  N. Nair,  D. P. O'Neill,  D. Neuhauser,  E. Neuscamman,  
 C. M. Oana,  R. Olson,  B. Peters,  R. Peverati,  P. A. Pieniazek,  
 Y. M. Rhee,  J. Ritchie,  M. A. Rohrdanz,  E. Rosta,  N. J. Russ,  
 H. F. Schaefer III,  N. E. Schultz,  N. Shenvi,  A. C. Simmonett,  A. Sodt,  
 D. Stuck,  K. S. Thanthiriwatte,  V. Vanovschi,  Tao Wang,  A. Warshel,  
 C. F. Williams,  Q. Wu,  X. Xu,  W. Zhang

 Please cite Q-Chem as follows:
 Y. Shao et al., Mol. Phys. 113, 184-215 (2015)
 DOI: 10.1080/00268976.2014.952696

 Q-Chem 5.2.1 for Intel X86 EM64T Linux

 Parts of Q-Chem use Armadillo 8.300.2 (Tropical Shenanigans).
 http://arma.sourceforge.net/

 Q-Chem begins on Mon Feb  7 18:14:11 2022  

Host: 
0

     Scratch files written to /gpfs/fs0/scratch/a/aspuru/rhickman/descriptor_computation/qchem162739//
 Jul1719 |scratch|qcdevops|jenkins|workspace|build_RNUM -1
Processing $rem in /scinet/niagara/software/commercial/qc52/config/preferences:
	 MEM_TOTAL  4000 
NAlpha2: 190
NElect   190
Mult     1

Checking the input file for inconsistencies... 	...done.

--------------------------------------------------------------
User input:
--------------------------------------------------------------
$molecule
0 1
C         1.13649562960000   -4.60312171360000    1.96616410780000
O         2.13226223560000   -4.44241802000000    0.98432760030000
C         2.24983881290000   -3.23934914250000    0.36439217700000
C         1.45127136910000   -2.13406808350000    0.62856310680000
C         1.63588073440000   -0.95153909240000   -0.08316657400000
N         0.82587657020000    0.17423630360000    0.17100757960000
C         1.55297605010000    1.35720461400000    0.42221376180000
C         2.57908137350000    1.73129554350000   -0.44398896850000
S         2.97276221550000    0.68726158910000   -1.82203098270000
C         3.29871384850000    2.89554819990000   -0.22579237100000
C         3.00937294050000    3.68679818570000    0.87044774030000
C         2.02847387420000    3.29459610020000    1.76735628340000
C         1.31302532820000    2.13042698240000    1.55336970100000
C        -0.55039006250000    0.15101842980000    0.04427187560000
C        -1.31703620460000    1.30977471720000    0.21847929890000
C        -2.68724249860000    1.28601383670000    0.08994646890000
C        -3.36397639090000    0.10756407670000   -0.23297832740000
C        -4.80413813340000    0.01026570890000   -0.36598034670000
C        -5.71824745950000    0.94809726030000   -0.16097964200000
F        -5.53047554220000    2.20887131510000    0.22032583310000
F        -7.02764811610000    0.73689758450000   -0.31575614970000
C        -2.59192785010000   -1.03376438520000   -0.46392393820000
C        -1.22226510490000   -1.01724514040000   -0.33628951860000
C         2.67415289290000   -0.85741508870000   -1.00263221240000
C         3.48042044350000   -1.95751612760000   -1.25974212690000
C         3.25958929650000   -3.14418082650000   -0.59809925140000
H         1.22702681710000   -5.63201138480000    2.31011249060000
H         0.13462787020000   -4.44723425920000    1.55326034670000
H         1.29183434570000   -3.92487490360000    2.81123812770000
H         0.67490722940000   -2.16372243640000    1.37641008630000
H         4.07564111450000    3.17154382710000   -0.92166623740000
H         3.56155725970000    4.59924449910000    1.03388315810000
H         1.82090208110000    3.89447218900000    2.64022603460000
H         0.55861763060000    1.81367862160000    2.25787373900000
H        -0.83328383490000    2.24917415540000    0.43342571280000
H        -3.23282228010000    2.20374733950000    0.23576074450000
H        -5.19626692040000   -0.95031248810000   -0.66847341140000
H        -3.07924531650000   -1.95271441880000   -0.75643527120000
H        -0.66458963580000   -1.91257302290000   -0.56143045550000
H         4.27149267140000   -1.87285548420000   -1.98791782870000
H         3.86702599490000   -4.01243918490000   -0.79348235340000
$end

$rem
BASIS = 6-31G*
GUI = 2
METHOD = B3LYP
PRINT_ORBITALS false
MOLDEN_FORMAT false
--------------------------------------------------------------
 ----------------------------------------------------------------
             Standard Nuclear Orientation (Angstroms)
    I     Atom           X                Y                Z
 ----------------------------------------------------------------
    1      C      -2.0429833505    -4.2866156914    -1.8157985397
    2      O      -2.9850007527    -3.8811431178    -0.8516538700
    3      C      -2.8406093660    -2.6619697190    -0.2700300605
    4      C      -1.8187058157    -1.7663896271    -0.5577658675
    5      C      -1.7447100700    -0.5496778475     0.1153995254
    6      N      -0.7072281069     0.3637241466    -0.1628260339
    7      C      -1.1573310735     1.6679509596    -0.4587854279
    8      C      -2.0817712422     2.2844422659     0.3829343425
    9      S      -2.7012209781     1.3963811357     1.7870784768
   10      C      -2.5288495544     3.5698530309     0.1206271751
   11      C      -2.0679050281     4.2431844121    -0.9954785894
   12      C      -1.1913665206     3.6178849941    -1.8678955033
   13      C      -0.7483302348     2.3333313331    -1.6098502442
   14      C       0.6301073436     0.0452790938    -0.0184740548
   15      C       1.6320392348     1.0028843844    -0.2183121393
   16      C       2.9633322344     0.6852883227    -0.0722222808
   17      C       3.3648811155    -0.6012379747     0.2946586321
   18      C       4.7483740558    -1.0056641775     0.4483111121
   19      C       5.8461783610    -0.2966846888     0.2262233821
   20      F       5.9400819725     0.9617098658    -0.1954739410
   21      F       7.0770929644    -0.7830170429     0.4034837288
   22      C       2.3611721508    -1.5388324489     0.5506086242
   23      C       1.0288247076    -1.2283895338     0.4056432726
   24      C      -2.7423971091    -0.2019032617     1.0187039440
   25      C      -3.7706466703    -1.0909809256     1.2991302527
   26      C      -3.8104675900    -2.3180007707     0.6765972079
   27      H      -2.3539574266    -5.2816206088    -2.1294395443
   28      H      -1.0334931454    -4.3395225927    -1.3954893592
   29      H      -2.0420147453    -3.6184958636    -2.6829282351
   30      H      -1.0634762833    -1.9886603864    -1.2947325056
   31      H      -3.2305989098     4.0308564760     0.7981621681
   32      H      -2.4068092175     5.2482568855    -1.1933427007
   33      H      -0.8531851298     4.1295812430    -2.7559491444
   34      H      -0.0774024534     1.8372044076    -2.2950512540
   35      H       1.3660771332     2.0176713348    -0.4676336713
   36      H       3.6967856295     1.4568805472    -0.2390918089
   37      H       4.9198261721    -2.0183147868     0.7846449163
   38      H       2.6346549110    -2.5319421157     0.8768764999
   39      H       0.2880260059    -1.9729268239     0.6509673331
   40      H      -4.5281215471    -0.8124859825     2.0145846011
   41      H      -4.5937604754    -3.0262521754     0.8907436053
 ----------------------------------------------------------------
 Molecular Point Group                 C1    NOp =  1
 Largest Abelian Subgroup              C1    NOp =  1
 Nuclear Repulsion Energy =        2337.75838955 hartrees
 There are       95 alpha and       95 beta electrons
 Requested basis set is 6-31G(d)
 There are 135 shells and 424 basis functions

 Total QAlloc Memory Limit   4000 MB
 Mega-Array Size       188 MB
 MEM_STATIC part       192 MB
 A cutoff of  1.0D-08 yielded   4147 shell pairs
 There are     44145 function pairs
 Smallest overlap matrix eigenvalue = 3.60E-04

 Scale SEOQF with 1.000000e-02/1.000000e-02/1.000000e-01

 Standard Electronic Orientation quadrupole field applied
 Nucleus-field energy     =    -0.0000000062 hartrees
 Guess from superposition of atomic densities
 Warning:  Energy on first SCF cycle will be non-variational
 SAD guess density has 190.000000 electrons

 -----------------------------------------------------------------------
  General SCF calculation program by
  Eric Jon Sundstrom, Paul Horn, Yuezhi Mao, Dmitri Zuev, Alec White,
  David Stuck, Shaama M.S., Shane Yost, Joonho Lee, David Small,
  Daniel Levine, Susi Lehtola, Hugh Burton, Evgeny Epifanovsky,
  Bang C. Huynh
 -----------------------------------------------------------------------
 Exchange:     0.2000 Hartree-Fock + 0.0800 Slater + 0.7200 B88
 Correlation:  0.1900 VWN1RPA + 0.8100 LYP
 Using SG-1 standard quadrature grid
 A restricted SCF calculation will be
 performed using DIIS
 SCF converges when DIIS error is below 1.0e-05
 ---------------------------------------
  Cycle       Energy         DIIS error
 ---------------------------------------
    1   -1543.7943963497      3.99e-02  
    2   -1536.7162001995      3.89e-03  
    3   -1536.4600485305      5.14e-03  
    4   -1537.0303472197      1.24e-03  
    5   -1537.0613076798      5.08e-04  
    6   -1537.0666880894      2.15e-04  
    7   -1537.0677476481      5.91e-05  
    8   -1537.0678220626      1.93e-05  
    9   -1537.0678303235      5.45e-06  Convergence criterion met
 ---------------------------------------
 SCF time:   CPU 142.99s  wall 143.00s 
 SCF   energy in the final basis set =    -1537.0678303235
 Total energy in the final basis set =    -1537.0678303235
 
 --------------------------------------------------------------
 
                    Orbital Energies (a.u.)
 --------------------------------------------------------------
 
 Alpha MOs
 -- Occupied --
-88.8923 -24.7349 -24.7242 -19.1857 -14.3737 -10.3446 -10.2556 -10.2463
-10.2382 -10.2364 -10.2330 -10.2248 -10.2190 -10.2003 -10.1987 -10.1973
-10.1956 -10.1954 -10.1950 -10.1946 -10.1915 -10.1908 -10.1859 -10.1830
-10.1801 -10.1798  -7.9531  -5.9180  -5.9145  -5.9082  -1.2745  -1.2141
 -1.0767  -0.9891  -0.8757  -0.8718  -0.8529  -0.8119  -0.7971  -0.7742
 -0.7637  -0.7531  -0.7456  -0.7255  -0.7205  -0.6762  -0.6500  -0.6402
 -0.6216  -0.6138  -0.6016  -0.5977  -0.5710  -0.5627  -0.5526  -0.5448
 -0.5220  -0.5094  -0.5088  -0.4986  -0.4900  -0.4789  -0.4777  -0.4662
 -0.4575  -0.4509  -0.4477  -0.4454  -0.4399  -0.4316  -0.4299  -0.4222
 -0.4125  -0.4115  -0.4094  -0.4019  -0.3855  -0.3839  -0.3808  -0.3721
 -0.3654  -0.3592  -0.3517  -0.3431  -0.3341  -0.3311  -0.3265  -0.2906
 -0.2831  -0.2597  -0.2513  -0.2455  -0.2416  -0.2092  -0.1821
 -- Virtual --
 -0.0247  -0.0129  -0.0102  -0.0039   0.0026   0.0091   0.0320   0.0733
  0.0801   0.0909   0.0990   0.1099   0.1153   0.1269   0.1379   0.1405
  0.1446   0.1450   0.1523   0.1560   0.1620   0.1659   0.1704   0.1737
  0.1789   0.1869   0.1904   0.1980   0.2028   0.2090   0.2145   0.2317
  0.2432   0.2628   0.2699   0.2803   0.2923   0.2961   0.3091   0.3150
  0.3230   0.3304   0.3468   0.3501   0.3577   0.3704   0.3821   0.3860
  0.3948   0.4194   0.4251   0.4327   0.4553   0.4862   0.4959   0.5017
  0.5054   0.5124   0.5208   0.5247   0.5284   0.5340   0.5365   0.5434
  0.5474   0.5518   0.5580   0.5658   0.5684   0.5729   0.5752   0.5862
  0.5891   0.5914   0.5941   0.5965   0.5979   0.6006   0.6049   0.6094
  0.6120   0.6198   0.6215   0.6240   0.6377   0.6437   0.6491   0.6512
  0.6565   0.6649   0.6753   0.6793   0.6951   0.7040   0.7119   0.7346
  0.7420   0.7684   0.7840   0.7852   0.8030   0.8132   0.8233   0.8255
  0.8263   0.8315   0.8359   0.8372   0.8410   0.8467   0.8510   0.8560
  0.8652   0.8690   0.8840   0.8892   0.8914   0.8968   0.9072   0.9128
  0.9225   0.9271   0.9349   0.9440   0.9541   0.9583   0.9638   0.9774
  0.9843   0.9973   1.0051   1.0136   1.0140   1.0300   1.0455   1.0530
  1.0562   1.0736   1.0846   1.0979   1.1100   1.1183   1.1208   1.1421
  1.1521   1.1637   1.1688   1.1727   1.1854   1.1921   1.2030   1.2209
  1.2267   1.2387   1.2489   1.2506   1.2631   1.2730   1.2877   1.3012
  1.3145   1.3290   1.3504   1.3618   1.3676   1.3761   1.3838   1.3950
  1.4121   1.4276   1.4328   1.4359   1.4440   1.4541   1.4566   1.4637
  1.4728   1.4748   1.4789   1.4834   1.5028   1.5055   1.5174   1.5297
  1.5324   1.5568   1.5609   1.5988   1.6140   1.6461   1.6628   1.6752
  1.6878   1.7252   1.7525   1.7740   1.7845   1.7910   1.7952   1.8033
  1.8111   1.8195   1.8295   1.8368   1.8450   1.8481   1.8580   1.8755
  1.8807   1.8852   1.8879   1.9187   1.9204   1.9246   1.9448   1.9511
  1.9558   1.9607   1.9642   1.9789   1.9926   2.0017   2.0095   2.0224
  2.0376   2.0416   2.0469   2.0726   2.0797   2.0934   2.0966   2.1062
  2.1200   2.1244   2.1432   2.1479   2.1545   2.1600   2.1662   2.1671
  2.1755   2.1978   2.2069   2.2364   2.2471   2.2527   2.2653   2.2692
  2.2876   2.2999   2.3073   2.3153   2.3298   2.3369   2.3466   2.3514
  2.3665   2.3856   2.4365   2.4459   2.4832   2.5031   2.5232   2.5299
  2.5433   2.5535   2.5782   2.5977   2.6190   2.6336   2.6442   2.6542
  2.6628   2.6703   2.6729   2.6899   2.6972   2.7099   2.7273   2.7422
  2.7499   2.7573   2.7872   2.8033   2.8149   2.8297   2.8428   2.8693
  2.8990   2.9244   2.9403   2.9690   2.9946   3.0006   3.0659   3.1300
  3.1549   3.2324   3.2465   3.3365   3.4013   3.4626   3.4921   3.9714
  4.0571   4.0883   4.0983   4.1142   4.1199   4.1304   4.1396   4.1643
  4.1861   4.2061   4.2120   4.2824   4.3048   4.3481   4.3543   4.3889
  4.3982   4.4043   4.4942   4.5418   4.7031   4.7496   4.7905   4.8320
  5.2834
 --------------------------------------------------------------
 
          Ground-State Mulliken Net Atomic Charges

     Atom                 Charge (a.u.)
  ----------------------------------------
      1 C                    -0.217464
      2 O                    -0.504803
      3 C                     0.375288
      4 C                    -0.229145
      5 C                     0.268135
      6 N                    -0.691169
      7 C                     0.261913
      8 C                    -0.097475
      9 S                     0.166412
     10 C                    -0.177169
     11 C                    -0.110691
     12 C                    -0.146901
     13 C                    -0.144850
     14 C                     0.360420
     15 C                    -0.196985
     16 C                    -0.206564
     17 C                     0.198681
     18 C                    -0.298580
     19 C                     0.532699
     20 F                    -0.240579
     21 F                    -0.254803
     22 C                    -0.206528
     23 C                    -0.197830
     24 C                    -0.114591
     25 C                    -0.175256
     26 C                    -0.156540
     27 H                     0.173001
     28 H                     0.153397
     29 H                     0.154321
     30 H                     0.151964
     31 H                     0.147057
     32 H                     0.134462
     33 H                     0.135796
     34 H                     0.149882
     35 H                     0.149334
     36 H                     0.137357
     37 H                     0.154128
     38 H                     0.124568
     39 H                     0.148445
     40 H                     0.148951
     41 H                     0.141710
  ----------------------------------------
  Sum of atomic charges =     0.000000

 -----------------------------------------------------------------
                    Cartesian Multipole Moments
 -----------------------------------------------------------------
    Charge (ESU x 10^10)
                 0.0000
    Dipole Moment (Debye)
         X      -1.6567      Y      -0.8724      Z      -2.0711
       Tot       2.7920
    Quadrupole Moments (Debye-Ang)
        XX    -165.4474     XY      -3.4166     YY    -135.6003
        XZ      -0.8629     YZ      -0.5152     ZZ    -150.4636
    Octopole Moments (Debye-Ang^2)
       XXX     -13.4142    XXY      -4.8583    XYY      14.6441
       YYY      -5.8528    XXZ      20.1708    XYZ      -6.1754
       YYZ     -34.9291    XZZ      20.7035    YZZ     -13.2561
       ZZZ     -21.5043
    Hexadecapole Moments (Debye-Ang^3)
      XXXX   -9627.7877   XXXY      52.2536   XXYY   -2183.0940
      XYYY     -96.5907   YYYY   -4141.0567   XXXZ     -93.8257
      XXYZ     -22.8907   XYYZ      53.6021   YYYZ      62.4495
      XXZZ   -1644.1594   XYZZ      54.3878   YYZZ    -838.6947
      XZZZ      22.0606   YZZZ      18.1794   ZZZZ   -1035.5464
 -----------------------------------------------------------------
Archival summary:
1\1\nia1977.scinet.local\SP\ProcedureUnspecified\6-31G*\12112115\rhickman\MonFeb718:16:392022MonFeb718:16:392022\0\\#,ProcedureUnspecified,6-31G*,\\0,1\S\C,1,1.77313\C,2,1.38599,1,120.111\H,3,1.0789,2,119.159,1,1.99353,0\C,3,1.38258,2,119.795,1,-178.312,0\H,5,1.07897,3,119.8,2,-179.268,0\C,5,1.3858,3,119.956,2,1.8495,0\H,7,1.07928,5,120.15,3,178.129,0\C,7,1.38309,5,120.28,3,-1.61831,0\H,9,1.07972,7,120.491,5,179.05,0\C,9,1.39103,7,120.295,5,-1.30132,0\N,11,1.4111,9,121.458,7,-179.191,0\C,12,1.38228,11,122.918,9,58.7517,0\C,13,1.40029,12,121.319,11,-2.84783,0\H,14,1.07828,13,120.007,12,1.44633,0\C,14,1.37643,13,121.273,12,179.895,0\H,16,1.07757,14,118.469,13,179.865,0\C,16,1.39678,14,121.229,13,-0.675353,0\C,18,1.39715,16,117.368,14,-2.09264,0\H,19,1.08051,18,119.359,16,-177.459,0\C,19,1.3757,18,121.67,16,2.1454,0\H,21,1.07856,19,119.042,18,-177.678,0\C,12,1.40999,11,113.918,9,-127.799,0\C,23,1.39007,12,119.621,11,-48.7202,0\C,24,1.38795,23,120.182,12,179.867,0\H,25,1.07852,24,119.271,23,178.996,0\C,25,1.37648,24,120.071,23,-0.412143,0\H,27,1.07751,25,121.136,24,179.218,0\C,23,1.39249,12,120.647,11,127.852,0\H,29,1.07838,23,118.246,12,-0.0227434,0\C,29,1.38894,23,120.156,12,179.622,0\O,31,1.3585,29,124.623,23,-178.7,0\C,32,1.40761,31,118.727,29,0.0736266,0\H,33,1.08863,32,105.632,31,179.579,0\H,33,1.09467,32,111.553,31,-61.8126,0\H,33,1.09477,32,111.595,31,60.9511,0\C,18,1.44956,16,124,14,179.157,0\H,37,1.08073,18,116.476,16,177.033,0\C,37,1.32558,18,128.568,16,-3.20397,0\F,39,1.33049,37,128.128,18,-0.136046,0\F,39,1.33532,37,123.119,18,-179.917,0\\\@

 Total job time:  147.62s(wall), 143.44s(cpu) 
 Mon Feb  7 18:16:39 2022

        *************************************************************
        *                                                           *
        *  Thank you very much for using Q-Chem.  Have a nice day.  *
        *                                                           *
        *************************************************************


