
Running Job 1 of 1 fragments/B023/conf-3/spe_input.inp
qchem fragments/B023/conf-3/spe_input.inp_267954.0 /gpfs/fs0/scratch/a/aspuru/rhickman/descriptor_computation/qchem267954/ 0
/scinet/niagara/software/commercial/qc52/exe/qcprog.exe_s fragments/B023/conf-3/spe_input.inp_267954.0 /gpfs/fs0/scratch/a/aspuru/rhickman/descriptor_computation/qchem267954/
                  Welcome to Q-Chem
     A Quantum Leap Into The Future Of Chemistry


 Q-Chem 5.2, Q-Chem, Inc., Pleasanton, CA (2019)

 License issued to: SRG Alan Aspuru-Guzik, University of Toronto

 Yihan Shao,  Zhengting Gan,  E. Epifanovsky,  A. T. B. Gilbert,  M. Wormit,  
 J. Kussmann,  A. W. Lange,  A. Behn,  Jia Deng,  Xintian Feng,  D. Ghosh,  
 M. Goldey,  P. R. Horn,  L. D. Jacobson,  I. Kaliman,  T. Kus,  A. Landau,  
 Jie Liu,  E. I. Proynov,  R. M. Richard,  R. P. Steele,  E. J. Sundstrom,  
 H. L. Woodcock III,  P. M. Zimmerman,  D. Zuev,  B. Albrecht,  E. Alguire,  
 S. A. Baeppler,  D. Barton,  Z. Benda,  Y. A. Bernard,  E. J. Berquist,  
 K. B. Bravaya,  H. Burton,  D. Casanova,  Chun-Min Chang,  Yunqing Chen,  
 A. Chien,  K. D. Closser,  M. P. Coons,  S. Coriani,  S. Dasgupta,  
 A. L. Dempwolff,  M. Diedenhofen,  Hainam Do,  R. G. Edgar,  Po-Tung Fang,  
 S. Faraji,  S. Fatehi,  Qingguo Feng,  K. D. Fenk,  J. Fosso-Tande,  
 J. Gayvert,  Qinghui Ge,  A. Ghysels,  G. Gidofalvi,  J. Gomes,  
 J. Gonthier,  A. Gunina,  D. Hait,  M. W. D. Hanson-Heine,  
 P. H. P. Harbach,  A. W. Hauser,  M. F. Herbst,  J. E. Herr,  
 E. G. Hohenstein,  Z. C. Holden,  Kerwin Hui,  B. C. Huynh,  T.-C. Jagau,  
 Hyunjun Ji,  B. Kaduk,  K. Khistyaev,  Jaehoon Kim,  P. Klunzinger,  K. Koh,  
 D. Kosenkov,  L. Koulias,  T. Kowalczyk,  C. M. Krauter,  A. Kunitsa,  
 Ka Un Lao,  A. Laurent,  K. V. Lawler,  Joonho Lee,  D. Lefrancois,  
 S. Lehtola,  D. S. Levine,  Yi-Pei Li,  You-Sheng Lin,  Fenglai Liu,  
 E. Livshits,  A. Luenser,  P. Manohar,  E. Mansoor,  S. F. Manzer,  
 Shan-Ping Mao,  Yuezhi Mao,  N. Mardirossian,  A. V. Marenich,  
 T. Markovich,  L. A. Martinez-Martinez,  S. A. Maurer,  N. J. Mayhall,  
 S. C. McKenzie,  J.-M. Mewes,  P. Morgante,  A. F. Morrison,  
 J. W. Mullinax,  K. Nanda,  T. S. Nguyen-Beck,  R. Olivares-Amaya,  
 J. A. Parkhill,  Zheng Pei,  T. M. Perrine,  F. Plasser,  P. Pokhilko,  
 S. Prager,  A. Prociuk,  E. Ramos,  D. R. Rehn,  F. Rob,  M. Scheurer,  
 M. Schneider,  N. Sergueev,  S. M. Sharada,  S. Sharma,  D. W. Small,  
 T. Stauch,  T. Stein,  Yu-Chuan Su,  A. J. W. Thom,  A. Tkatchenko,  
 T. Tsuchimochi,  N. M. Tubman,  L. Vogt,  M. L. Vidal,  O. Vydrov,  
 M. A. Watson,  J. Wenzel,  M. de Wergifosse,  T. A. Wesolowski,  A. White,  
 J. Witte,  A. Yamada,  Jun Yang,  K. Yao,  S. Yeganeh,  S. R. Yost,  
 Zhi-Qiang You,  A. Zech,  Igor Ying Zhang,  Xing Zhang,  Yan Zhao,  
 Ying Zhu,  B. R. Brooks,  G. K. L. Chan,  C. J. Cramer,  M. S. Gordon,  
 W. J. Hehre,  A. Klamt,  M. W. Schmidt,  C. D. Sherrill,  D. G. Truhlar,  
 A. Aspuru-Guzik,  R. Baer,  A. T. Bell,  N. A. Besley,  Jeng-Da Chai,  
 A. E. DePrince, III,  R. A. DiStasio Jr.,  A. Dreuw,  B. D. Dunietz,  
 T. R. Furlani,  Chao-Ping Hsu,  Yousung Jung,  Jing Kong,  D. S. Lambrecht,  
 WanZhen Liang,  C. Ochsenfeld,  V. A. Rassolov,  L. V. Slipchenko,  
 J. E. Subotnik,  T. Van Voorhis,  J. M. Herbert,  A. I. Krylov,  
 P. M. W. Gill,  M. Head-Gordon

 Contributors to earlier versions of Q-Chem not listed above: 
 R. D. Adamson,  B. Austin,  J. Baker,  G. J. O. Beran,  K. Brandhorst,  
 S. T. Brown,  E. F. C. Byrd,  A. K. Chakraborty,  C.-L. Cheng,  
 Siu Hung Chien,  D. M. Chipman,  D. L. Crittenden,  H. Dachsel,  
 R. J. Doerksen,  A. D. Dutoi,  L. Fusti-Molnar,  W. A. Goddard III,  
 A. Golubeva-Zadorozhnaya,  S. R. Gwaltney,  G. Hawkins,  A. Heyden,  
 S. Hirata,  G. Kedziora,  F. J. Keil,  C. Kelley,  Jihan Kim,  R. A. King,  
 R. Z. Khaliullin,  P. P. Korambath,  W. Kurlancheek,  A. M. Lee,  M. S. Lee,  
 S. V. Levchenko,  Ching Yeh Lin,  D. Liotard,  R. C. Lochan,  I. Lotan,  
 P. E. Maslen,  N. Nair,  D. P. O'Neill,  D. Neuhauser,  E. Neuscamman,  
 C. M. Oana,  R. Olson,  B. Peters,  R. Peverati,  P. A. Pieniazek,  
 Y. M. Rhee,  J. Ritchie,  M. A. Rohrdanz,  E. Rosta,  N. J. Russ,  
 H. F. Schaefer III,  N. E. Schultz,  N. Shenvi,  A. C. Simmonett,  A. Sodt,  
 D. Stuck,  K. S. Thanthiriwatte,  V. Vanovschi,  Tao Wang,  A. Warshel,  
 C. F. Williams,  Q. Wu,  X. Xu,  W. Zhang

 Please cite Q-Chem as follows:
 Y. Shao et al., Mol. Phys. 113, 184-215 (2015)
 DOI: 10.1080/00268976.2014.952696

 Q-Chem 5.2.1 for Intel X86 EM64T Linux

 Parts of Q-Chem use Armadillo 8.300.2 (Tropical Shenanigans).
 http://arma.sourceforge.net/

 Q-Chem begins on Mon Feb  7 09:40:32 2022  

Host: 
0

     Scratch files written to /gpfs/fs0/scratch/a/aspuru/rhickman/descriptor_computation/qchem267954//
 Jul1719 |scratch|qcdevops|jenkins|workspace|build_RNUM -1
Processing $rem in /scinet/niagara/software/commercial/qc52/config/preferences:
	 MEM_TOTAL  4000 
NAlpha2: 126
NElect   126
Mult     1

Checking the input file for inconsistencies... 	...done.

--------------------------------------------------------------
User input:
--------------------------------------------------------------
$molecule
0 1
C        -1.97100216230000    1.40933031530000    2.00457551010000
C        -2.80104613640000    0.77053485750000    1.19231699440000
C        -2.43551277860000   -0.27263831970000    0.23325540690000
C        -3.33032663140000   -1.32499654860000    0.03805277220000
C        -3.03189296170000   -2.37729961940000   -0.80484276690000
C        -1.82622185050000   -2.39081400710000   -1.48671199930000
C        -0.93752241670000   -1.34493140920000   -1.32358930000000
C        -1.22493620010000   -0.28067249030000   -0.47348669300000
C        -0.27373789330000    0.84788045340000   -0.41874868230000
C        -0.68870635510000    2.09770629810000   -0.86379321960000
C         0.18731807790000    3.16573821880000   -0.89659883450000
C         1.49799435530000    2.99313686570000   -0.48100392740000
C         1.92664953430000    1.75805145960000   -0.03596678760000
C         1.05525251930000    0.66883981870000   -0.00151635160000
C         1.46352202490000   -0.63416277720000    0.50872214380000
C         2.69506435350000   -1.10493982550000    0.62397332280000
F         3.83316741060000   -0.51125006870000    0.27880891670000
F         2.97279348970000   -2.31309835880000    1.11452424990000
H        -2.32909585350000    2.14362782460000    2.70604789790000
H        -0.91121421180000    1.22159284700000    2.01330644720000
H        -3.86461266490000    0.96814078740000    1.25805280280000
H        -4.26841066000000   -1.31762493520000    0.57505027420000
H        -3.73793718510000   -3.18430995610000   -0.93266725340000
H        -1.58331901740000   -3.20746906430000   -2.14982247460000
H        -0.00708464740000   -1.33579198730000   -1.87365132810000
H        -1.71063625100000    2.22201767220000   -1.19097243700000
H        -0.14962416900000    4.12997139610000   -1.24643829090000
H         2.18707916390000    3.82397040330000   -0.50011067320000
H         2.94430960470000    1.64178867260000    0.30047296840000
H         0.67683305780000   -1.30657514190000    0.81976480510000
$end

$rem
BASIS = 6-31G*
GUI = 2
METHOD = B3LYP
PRINT_ORBITALS false
MOLDEN_FORMAT false
--------------------------------------------------------------
 ----------------------------------------------------------------
             Standard Nuclear Orientation (Angstroms)
    I     Atom           X                Y                Z
 ----------------------------------------------------------------
    1      C       1.4795123836    -1.6774507844     2.1262501839
    2      C       2.4638211714    -1.1864270383     1.3867717033
    3      C       2.3518688575    -0.0953195961     0.4179707585
    4      C       3.4226952301     0.7916320098     0.3043861192
    5      C       3.3694691832     1.8802867269    -0.5434789601
    6      C       2.2380590961     2.0975030737    -1.3125689357
    7      C       1.1767484598     1.2159482733    -1.2304289689
    8      C       1.2165932561     0.1173539638    -0.3763615786
    9      C       0.0881535245    -0.8350238130    -0.4080878778
   10      C       0.3199116722    -2.1362744713    -0.8386259037
   11      C      -0.7178811362    -3.0415336778    -0.9512272149
   12      C      -2.0085749823    -2.6512942797    -0.6315316318
   13      C      -2.2562588408    -1.3622694100    -0.2022218716
   14      C      -1.2195850772    -0.4353559688    -0.0880265598
   15      C      -1.4407531549     0.9170971726     0.4087613808
   16      C      -2.5809872290     1.5883359795     0.4390118545
   17      F      -3.7732479724     1.1951889269     0.0021660261
   18      F      -2.6882703092     2.8253481714     0.9245135583
   19      H       1.6553991180    -2.4624937908     2.8419727344
   20      H       0.4686475195    -1.3139842343     2.0590461674
   21      H       3.4711288017    -1.5603571499     1.5283720929
   22      H       4.3030397865     0.6257145903     0.9092722031
   23      H       4.2085023783     2.5570826526    -0.6073052938
   24      H       2.1863223731     2.9442836297    -1.9803479207
   25      H       0.3021347479     1.3643205711    -1.8480070793
   26      H       1.3282204967    -2.4304198201    -1.0908799388
   27      H      -0.5220817206    -4.0482598763    -1.2886117037
   28      H      -2.8238548190    -3.3542315802    -0.7132949961
   29      H      -3.2624194093    -1.0767890195     0.0594699722
   30      H      -0.5781292222     1.4470511822     0.7866425192
 ----------------------------------------------------------------
 Molecular Point Group                 C1    NOp =  1
 Largest Abelian Subgroup              C1    NOp =  1
 Nuclear Repulsion Energy =        1231.27287686 hartrees
 There are       63 alpha and       63 beta electrons
 Requested basis set is 6-31G(d)
 There are 96 shells and 294 basis functions

 Total QAlloc Memory Limit   4000 MB
 Mega-Array Size       188 MB
 MEM_STATIC part       192 MB
 A cutoff of  1.0D-08 yielded   2889 shell pairs
 There are     28650 function pairs
 Smallest overlap matrix eigenvalue = 3.33E-04

 Scale SEOQF with 1.000000e-01/1.000000e-01/1.000000e-01

 Standard Electronic Orientation quadrupole field applied
 Nucleus-field energy     =     0.0000000398 hartrees
 Guess from superposition of atomic densities
 Warning:  Energy on first SCF cycle will be non-variational
 SAD guess density has 126.000000 electrons

 -----------------------------------------------------------------------
  General SCF calculation program by
  Eric Jon Sundstrom, Paul Horn, Yuezhi Mao, Dmitri Zuev, Alec White,
  David Stuck, Shaama M.S., Shane Yost, Joonho Lee, David Small,
  Daniel Levine, Susi Lehtola, Hugh Burton, Evgeny Epifanovsky,
  Bang C. Huynh
 -----------------------------------------------------------------------
 Exchange:     0.2000 Hartree-Fock + 0.0800 Slater + 0.7200 B88
 Correlation:  0.1900 VWN1RPA + 0.8100 LYP
 Using SG-1 standard quadrature grid
 A restricted SCF calculation will be
 performed using DIIS
 SCF converges when DIIS error is below 1.0e-05
 ---------------------------------------
  Cycle       Energy         DIIS error
 ---------------------------------------
    1    -820.8783028310      4.72e-02  
    2    -816.2788056373      4.92e-03  
    3    -816.1181974069      6.26e-03  
    4    -816.5407277394      1.27e-03  
    5    -816.5574190887      4.34e-04  
    6    -816.5587102052      2.58e-04  
    7    -816.5594825411      5.26e-05  
    8    -816.5595127947      1.77e-05  
    9    -816.5595159524      5.13e-06  Convergence criterion met
 ---------------------------------------
 SCF time:   CPU 73.32s  wall 74.00s 
 SCF   energy in the final basis set =     -816.5595159524
 Total energy in the final basis set =     -816.5595159524
 
 --------------------------------------------------------------
 
                    Orbital Energies (a.u.)
 --------------------------------------------------------------
 
 Alpha MOs
 -- Occupied --
-24.7393 -24.7297 -10.3517 -10.2027 -10.1978 -10.1967 -10.1966 -10.1945
-10.1894 -10.1888 -10.1887 -10.1885 -10.1881 -10.1858 -10.1851 -10.1849
-10.1844 -10.1780  -1.2803  -1.2195  -0.8811  -0.8562  -0.8036  -0.7939
 -0.7767  -0.7368  -0.7324  -0.7193  -0.6436  -0.6331  -0.6132  -0.6054
 -0.5895  -0.5686  -0.5558  -0.5290  -0.5148  -0.5110  -0.4935  -0.4767
 -0.4641  -0.4580  -0.4416  -0.4372  -0.4331  -0.4303  -0.4245  -0.4204
 -0.4157  -0.4038  -0.3794  -0.3747  -0.3687  -0.3639  -0.3468  -0.3399
 -0.3327  -0.2990  -0.2890  -0.2643  -0.2449  -0.2244  -0.2153
 -- Virtual --
 -0.0330  -0.0181  -0.0119   0.0132   0.0517   0.0673   0.0963   0.1047
  0.1193   0.1220   0.1444   0.1485   0.1608   0.1620   0.1643   0.1737
  0.1842   0.1870   0.1890   0.1949   0.2045   0.2126   0.2621   0.2861
  0.2953   0.3106   0.3144   0.3206   0.3303   0.3446   0.3524   0.3732
  0.3935   0.4160   0.4350   0.4773   0.4882   0.4988   0.5049   0.5127
  0.5131   0.5257   0.5359   0.5439   0.5514   0.5559   0.5677   0.5735
  0.5781   0.5844   0.5902   0.5965   0.5998   0.6062   0.6080   0.6143
  0.6208   0.6254   0.6294   0.6300   0.6408   0.6538   0.6714   0.6808
  0.6987   0.7096   0.7185   0.7420   0.7651   0.7773   0.8084   0.8125
  0.8292   0.8372   0.8382   0.8405   0.8462   0.8522   0.8583   0.8802
  0.8829   0.8912   0.8949   0.9123   0.9179   0.9485   0.9488   0.9583
  0.9789   0.9912   1.0056   1.0308   1.0462   1.0538   1.0639   1.0905
  1.1016   1.1060   1.1184   1.1305   1.1544   1.1653   1.1789   1.1906
  1.1998   1.2184   1.2230   1.2441   1.2540   1.2702   1.2785   1.3074
  1.3322   1.3378   1.3583   1.3911   1.4150   1.4214   1.4350   1.4419
  1.4541   1.4724   1.4749   1.4785   1.4876   1.4955   1.5041   1.5163
  1.5337   1.5405   1.5689   1.5814   1.6524   1.6756   1.7138   1.7363
  1.7667   1.7850   1.7969   1.8049   1.8101   1.8228   1.8404   1.8479
  1.8546   1.8773   1.9073   1.9166   1.9267   1.9316   1.9406   1.9538
  1.9709   1.9769   1.9965   2.0072   2.0189   2.0275   2.0367   2.0519
  2.0715   2.0951   2.1232   2.1344   2.1455   2.1509   2.1651   2.1743
  2.2111   2.2269   2.2385   2.2443   2.2605   2.2699   2.2900   2.3041
  2.3303   2.3419   2.3526   2.3673   2.3948   2.4087   2.4286   2.5072
  2.5245   2.5320   2.5753   2.5943   2.6055   2.6324   2.6401   2.6565
  2.6841   2.6897   2.7108   2.7296   2.7481   2.7645   2.7850   2.7872
  2.8185   2.8457   2.8684   2.9021   2.9433   3.0024   3.0407   3.0708
  3.1726   3.2085   3.3154   3.4329   3.5049   4.0978   4.1052   4.1096
  4.1137   4.1300   4.1675   4.1935   4.2183   4.2861   4.3111   4.3630
  4.4197   4.4413   4.4634   4.6926   4.7810   4.8440   5.2811
 --------------------------------------------------------------
 
          Ground-State Mulliken Net Atomic Charges

     Atom                 Charge (a.u.)
  ----------------------------------------
      1 C                    -0.326851
      2 C                    -0.141879
      3 C                     0.137971
      4 C                    -0.199738
      5 C                    -0.119593
      6 C                    -0.132725
      7 C                    -0.154228
      8 C                    -0.015231
      9 C                    -0.014779
     10 C                    -0.139784
     11 C                    -0.134514
     12 C                    -0.124327
     13 C                    -0.208640
     14 C                     0.161201
     15 C                    -0.315931
     16 C                     0.545811
     17 F                    -0.237780
     18 F                    -0.249727
     19 H                     0.141906
     20 H                     0.159161
     21 H                     0.131476
     22 H                     0.129288
     23 H                     0.130361
     24 H                     0.131573
     25 H                     0.140417
     26 H                     0.134510
     27 H                     0.128143
     28 H                     0.128824
     29 H                     0.136681
     30 H                     0.178406
  ----------------------------------------
  Sum of atomic charges =     0.000000

 -----------------------------------------------------------------
                    Cartesian Multipole Moments
 -----------------------------------------------------------------
    Charge (ESU x 10^10)
                 0.0000
    Dipole Moment (Debye)
         X       1.2668      Y      -0.6686      Z      -0.1397
       Tot       1.4392
    Quadrupole Moments (Debye-Ang)
        XX     -96.6988     XY       4.2949     YY     -96.6295
        XZ       0.9352     YZ      -2.5662     ZZ    -101.7690
    Octopole Moments (Debye-Ang^2)
       XXX     -20.2744    XXY       2.9828    XYY      -6.2618
       YYY      13.7122    XXZ       9.4352    XYZ      -5.1383
       YYZ     -11.4473    XZZ     -16.5410    YZZ      11.3651
       ZZZ      10.1013
    Hexadecapole Moments (Debye-Ang^3)
      XXXX   -2914.1202   XXXY      -9.9605   XXYY    -782.1990
      XYYY     -35.7369   YYYY   -1836.8343   XXXZ      15.9403
      XXYZ     -12.3640   XYYZ      -2.7316   YYYZ      17.9769
      XXZZ    -621.9859   XYZZ     -42.2349   YYZZ    -401.3101
      XZZZ     -22.9978   YZZZ      -6.7917   ZZZZ    -653.0284
 -----------------------------------------------------------------
Archival summary:
1\1\nia0231.scinet.local\SP\ProcedureUnspecified\6-31G*\21612\rhickman\MonFeb709:41:472022MonFeb709:41:472022\0\\#,ProcedureUnspecified,6-31G*,\\0,1\F\C,1,1.32924\C,2,1.32348,1,127.969\H,3,1.08063,2,115.532,1,177.713,0\F,2,1.3332,1,108.78,3,179.201,0\C,3,1.45768,2,127.522,1,-1.4276,0\C,6,1.39531,3,122.108,2,-21.5066,0\H,7,1.07812,6,119.842,3,1.47963,0\C,7,1.38103,6,120.813,3,-177.692,0\H,9,1.07958,7,119.726,6,179.99,0\C,9,1.38578,7,120.106,6,0.223209,0\H,11,1.07966,9,120.237,7,-179.9,0\C,11,1.38173,9,119.752,7,0.00953805,0\H,13,1.0802,11,120.242,9,-179.666,0\C,13,1.39008,11,120.885,9,-0.00930054,0\C,15,1.47696,13,118.874,11,-176.6,0\C,16,1.39209,15,118.283,13,114.901,0\H,17,1.08091,16,118.817,15,3.19778,0\C,17,1.38212,16,121.187,15,-175.802,0\H,19,1.07965,17,120.014,16,-179.905,0\C,19,1.3852,17,119.616,16,0.682705,0\H,21,1.07986,19,120.234,17,179.375,0\C,21,1.3809,19,119.736,17,-0.465238,0\H,23,1.08094,21,119.735,19,-179.606,0\C,23,1.39508,21,121.441,19,-0.678816,0\C,25,1.46343,23,117.982,21,-177.098,0\H,26,1.08376,25,114.51,23,-32.4481,0\C,26,1.32544,25,126.068,23,143.625,0\H,28,1.07632,26,122.515,25,1.36598,0\H,28,1.07679,26,121.306,25,-177.908,0\\\@

 Total job time:  74.63s(wall), 73.59s(cpu) 
 Mon Feb  7 09:41:47 2022

        *************************************************************
        *                                                           *
        *  Thank you very much for using Q-Chem.  Have a nice day.  *
        *                                                           *
        *************************************************************


