
Running Job 1 of 1 tidas/B036/conf-4/spe_input.inp
qchem tidas/B036/conf-4/spe_input.inp_134673.0 /home/a/aspuru/seifridm/acdc_laser/descriptor_computation/qchem134673/ 0
/gpfs/fs1/scinet/niagara/software/commercial/qc54/exe/qcprog.exe_s tidas/B036/conf-4/spe_input.inp_134673.0 /home/a/aspuru/seifridm/acdc_laser/descriptor_computation/qchem134673/
                  Welcome to Q-Chem
     A Quantum Leap Into The Future Of Chemistry


 Q-Chem 5.4, Q-Chem, Inc., Pleasanton, CA (2021)

 License issued to: SRG Alan Aspuru-Guzik, University of Toronto

 E. Epifanovsky,  A. T. B. Gilbert,  Xintian Feng,  Joonho Lee,  Yuezhi Mao,  
 N. Mardirossian,  P. Pokhilko,  A. White,  M. Wormit,  M. P. Coons,  
 A. L. Dempwolff,  Zhengting Gan,  D. Hait,  P. R. Horn,  L. D. Jacobson,  
 I. Kaliman,  J. Kussmann,  A. W. Lange,  Ka Un Lao,  D. S. Levine,  Jie Liu,  
 S. C. McKenzie,  A. F. Morrison,  K. Nanda,  F. Plasser,  D. R. Rehn,  
 M. L. Vidal,  Zhi-Qiang You,  Ying Zhu,  B. Alam,  B. Albrecht,  
 A. Aldossary,  E. Alguire,  J. H. Andersen,  D. Barton,  K. Begam,  A. Behn,  
 Y. A. Bernard,  E. J. Berquist,  H. Burton,  A. Carreras,  K. Carter-Fenk,  
 Romit Chakraborty,  A. D. Chien,  K. D. Closser,  V. Cofer-Shabica,  
 S. Dasgupta,  Jia Deng,  M. de Wergifosse,  M. Diedenhofen,  Hainam Do,  
 S. Ehlert,  Po-Tung Fang,  S. Fatehi,  Qingguo Feng,  T. Friedhoff,  
 J. Gayvert,  Qinghui Ge,  G. Gidofalvi,  M. Goldey,  J. Gomes,  
 C. Gonzalez-Espinoza,  S. Gulania,  A. Gunina,  M. W. D. Hanson-Heine,  
 P. H. P. Harbach,  A. W. Hauser,  M. F. Herbst,  M. Hernandez Vera,  
 M. Hodecker,  Z. C. Holden,  S. Houck,  Xunkun Huang,  Kerwin Hui,  
 B. C. Huynh,  M. Ivanov,  Hyunjun Ji,  Hanjie Jiang,  B. Kaduk,  S. Kaehler,  
 K. Khistyaev,  Jaehoon Kim,  P. Klunzinger,  Z. Koczor-Benda,  
 Joong Hoon Koh,  D. Kosenkov,  L. Koulias,  T. Kowalczyk,  C. M. Krauter,  
 K. Kue,  A. Kunitsa,  T. Kus,  A. Landau,  K. V. Lawler,  D. Lefrancois,  
 S. Lehtola,  Rain Li,  Yi-Pei Li,  Jiashu Liang,  M. Liebenthal,  
 Hung-Hsuan Lin,  You-Sheng Lin,  Fenglai Liu,  Kuan-Yu Liu,  
 M. Loipersberger,  A. Luenser,  A. Manjanath,  P. Manohar,  E. Mansoor,  
 S. F. Manzer,  Shan-Ping Mao,  A. V. Marenich,  T. Markovich,  S. Mason,  
 S. A. Maurer,  P. F. McLaughlin,  M. F. S. J. Menger,  J.-M. Mewes,  
 S. A. Mewes,  P. Morgante,  J. W. Mullinax,  K. J. Oosterbaan,  G. Paran,  
 Alexander C. Paul,  Suranjan K. Paul,  F. Pavosevic,  Zheng Pei,  S. Prager,  
 E. I. Proynov,  E. Ramos,  B. Rana,  A. E. Rask,  A. Rettig,  R. M. Richard,  
 F. Rob,  E. Rossomme,  T. Scheele,  M. Scheurer,  M. Schneider,  
 N. Sergueev,  S. M. Sharada,  W. Skomorowski,  D. W. Small,  C. J. Stein,  
 Yu-Chuan Su,  E. J. Sundstrom,  Zhen Tao,  J. Thirman,  T. Tsuchimochi,  
 N. M. Tubman,  S. P. Veccham,  O. Vydrov,  J. Wenzel,  J. Witte,  A. Yamada,  
 Kun Yao,  S. Yeganeh,  S. R. Yost,  A. Zech,  Igor Ying Zhang,  Xing Zhang,  
 Yu Zhang,  D. Zuev,  A. Aspuru-Guzik,  A. T. Bell,  N. A. Besley,  
 K. B. Bravaya,  B. R. Brooks,  D. Casanova,  Jeng-Da Chai,  S. Coriani,  
 C. J. Cramer,  A. E. DePrince, III,  R. A. DiStasio Jr.,  A. Dreuw,  
 B. D. Dunietz,  T. R. Furlani,  W. A. Goddard III,  S. Grimme,  
 S. Hammes-Schiffer,  T. Head-Gordon,  W. J. Hehre,  Chao-Ping Hsu,  
 T.-C. Jagau,  Yousung Jung,  A. Klamt,  Jing Kong,  D. S. Lambrecht,  
 WanZhen Liang,  N. J. Mayhall,  C. W. McCurdy,  J. B. Neaton,  T. Neudecker,  
 C. Ochsenfeld,  J. A. Parkhill,  R. Peverati,  V. A. Rassolov,  Yihan Shao,  
 L. V. Slipchenko,  R. P. Steele,  J. E. Subotnik,  A. J. W. Thom,  
 A. Tkatchenko,  D. G. Truhlar,  T. Van Voorhis,  T. A. Wesolowski,  
 K. B. Whaley,  H. L. Woodcock III,  P. M. Zimmerman,  S. Faraji,  
 P. M. W. Gill,  M. Head-Gordon,  J. M. Herbert,  A. I. Krylov

 Additional authors since Version 5.4.0: 
 Chandrima Chakravarty,  L. Cunha,  R. Kang,  Yongbin Kim,  S. Kotaru,  
 Shaozhi Li,  Xiangyuan Li,  F. Matz,  A. Molle,  V. Parravicini,  
 Haisheng Ren,  Hengyuan Shen,  Yingli Su,  Hung-Yi Tsai,  C. Utku,  
 Fang Wang,  Jeff Yang,  F. Zeller

 Contributors to earlier versions of Q-Chem not listed above: 
 R. D. Adamson,  B. Austin,  R. Baer,  J. Baker,  G. J. O. Beran,  
 K. Brandhorst,  S. T. Brown,  E. F. C. Byrd,  Arup K. Chakraborty,  
 G. K. L. Chan,  Chun-Min Chang,  Yunqing Chen,  C.-L. Cheng,  
 Siu Hung Chien,  D. M. Chipman,  D. L. Crittenden,  H. Dachsel,  
 R. J. Doerksen,  A. D. Dutoi,  R. G. Edgar,  J. Fosso-Tande,  
 L. Fusti-Molnar,  D. Ghosh,  A. Ghysels,  A. Golubeva-Zadorozhnaya,  
 J. Gonthier,  M. S. Gordon,  S. R. Gwaltney,  G. Hawkins,  J. E. Herr,  
 A. Heyden,  S. Hirata,  E. G. Hohenstein,  G. Kedziora,  F. J. Keil,  
 C. Kelley,  Jihan Kim,  R. A. King,  R. Z. Khaliullin,  P. P. Korambath,  
 W. Kurlancheek,  A. Laurent,  A. M. Lee,  M. S. Lee,  S. V. Levchenko,  
 Ching Yeh Lin,  D. Liotard,  E. Livshits,  R. C. Lochan,  I. Lotan,  
 L. A. Martinez-Martinez,  P. E. Maslen,  N. Nair,  D. P. O'Neill,  
 D. Neuhauser,  E. Neuscamman,  C. M. Oana,  R. Olivares-Amaya,  R. Olson,  
 T. M. Perrine,  B. Peters,  P. A. Pieniazek,  A. Prociuk,  Y. M. Rhee,  
 J. Ritchie,  M. A. Rohrdanz,  E. Rosta,  N. J. Russ,  H. F. Schaefer III,  
 M. W. Schmidt,  N. E. Schultz,  S. Sharma,  N. Shenvi,  C. D. Sherrill,  
 A. C. Simmonett,  A. Sodt,  T. Stein,  D. Stuck,  K. S. Thanthiriwatte,  
 V. Vanovschi,  L. Vogt,  Tao Wang,  A. Warshel,  M. A. Watson,  
 C. F. Williams,  Q. Wu,  X. Xu,  Jun Yang,  W. Zhang,  Yan Zhao

   Please cite Q-Chem as follows:
  "Software for the frontiers of quantum chemistry:
   An overview of developments in the Q-Chem 5 package"
   J. Chem. Phys. 155, 084801 (2021)
   https://doi.org/10.1063/5.0055522 (open access)

 Q-Chem 5.4.2 for Intel X86 EM64T Linux

 Parts of Q-Chem use Armadillo 9.900.5 (Nocturnal Misbehaviour).
 http://arma.sourceforge.net/

 Q-Chem begins on Fri Aug 12 13:11:43 2022  

 Host: 
0

     Scratch files written to /home/a/aspuru/seifridm/acdc_laser/descriptor_computation/qchem134673//
 Dec1321 |scratch|qcdevops|jenkins|workspace|build_RNUM 6959   
 Processing $rem in /gpfs/fs1/scinet/niagara/software/commercial/qc54/config/preferences:
 Processing $rem in /home/a/aspuru/seifridm/.qchemrc:

 Checking the input file for inconsistencies... 	...done.

--------------------------------------------------------------
User input:
--------------------------------------------------------------
$molecule
0 1
C           -4.02479059870000       -2.24102186040000        0.02196351430000
C           -2.70668070270000       -2.08968619540000       -0.02937555080000
C           -1.97582181730000       -0.83006601160000       -0.07527789150000
C           -2.59684515290000        0.42079437620000       -0.03831465390000
C           -1.84715846060000        1.57383856160000       -0.06179409590000
C           -0.45442366860000        1.53817228550000       -0.13911142230000
O            0.15725730480000        2.75827857450000       -0.14008971810000
C            1.38749273380000        2.94171535820000        0.53186797270000
C            0.18911203250000        0.29328081130000       -0.22997435640000
C            1.63046778920000        0.18804138330000       -0.46290090390000
C            2.42356315120000       -0.76949112310000       -0.01275823020000
F            2.09589445140000       -1.77296428460000        0.79452308570000
F            3.72390911350000       -0.84444346900000       -0.29638052150000
C           -0.58880692290000       -0.86105736790000       -0.17700873500000
H           -4.47309475760000       -3.21899671510000        0.05440094870000
H           -4.70884216270000       -1.41006664000000        0.03289838640000
H           -2.07842793600000       -2.97188451250000       -0.03963883260000
H           -3.67071774440000        0.49269680800000        0.02441428380000
H           -2.31925083690000        2.54295843320000       -0.01600674370000
H            1.30567572670000        3.88440834120000        1.07767488890000
H            2.21484363580000        3.02368223490000       -0.17810590950000
H            1.59017104120000        2.13638616340000        1.23968904090000
H            2.09349274570000        0.93085335690000       -1.09378378020000
H           -0.09580462680000       -1.81870409810000       -0.25120841280000
$end

$rem
BASIS = 6-31G*
GUI = 2
METHOD = B3LYP
PRINT_ORBITALS false
MOLDEN_FORMAT false
$end
--------------------------------------------------------------
 ----------------------------------------------------------------
             Standard Nuclear Orientation (Angstroms)
    I     Atom           X                Y                Z
 ----------------------------------------------------------------
    1      C       4.4054642400     1.1524108265     0.0732908765
    2      C       3.0948639928     1.3529336689     0.0020907162
    3      C       2.0588899987     0.3297621367    -0.0506600358
    4      C       2.3281170883    -1.0401297597     0.0003393812
    5      C       1.3017251843    -1.9553625233    -0.0306600049
    6      C      -0.0312650258    -1.5549903358    -0.1296522495
    7      O      -0.9425037629    -2.5710712109    -0.1357797170
    8      C      -2.1869166571    -2.4192265495     0.5176995483
    9      C      -0.3230247717    -0.1853355883    -0.2348719115
   10      C      -1.6824208871     0.2937857087    -0.4904526526
   11      C      -2.2016756233     1.4296338751    -0.0560327606
   12      F      -1.6327226892     2.3175111829     0.7526666464
   13      F      -3.4323143303     1.8420457001    -0.3600129234
   14      C       0.7305284067     0.7239361208    -0.1739576314
   15      H       5.0949208630     1.9781369316     0.1092016920
   16      H       4.8464006094     0.1708257079     0.0977544207
   17      H       2.7212334874     2.3692736372    -0.0210189964
   18      H       3.3441903807    -1.3916498974     0.0799376183
   19      H       1.5013391489    -3.0141924440     0.0258597546
   20      H      -2.3638145481    -3.3461033193     1.0680411352
   21      H      -2.9966358365    -2.2858746650    -0.2047013949
   22      H      -2.1803198870    -1.5836689817     1.2194433095
   23      H      -2.3157882218    -0.3056827384    -1.1257937754
   24      H       0.5081216090     1.7769880296    -0.2591691895
 ----------------------------------------------------------------
 Molecular Point Group                 C1    NOp =  1
 Largest Abelian Subgroup              C1    NOp =  1
 Nuclear Repulsion Energy =         853.36582925 hartrees
 There are       51 alpha and       51 beta electrons
 Requested basis set is 6-31G(d)
 There are 76 shells and 230 basis functions

 Total QAlloc Memory Limit   8000 MB
 Mega-Array Size       188 MB
 MEM_STATIC part       192 MB
 A cutoff of  1.0D-08 yielded   1892 shell pairs
 There are     18522 function pairs
 Smallest overlap matrix eigenvalue = 3.42E-04

 Scale SEOQF with 1.000000e-01/1.000000e-01/1.000000e+00

 Standard Electronic Orientation quadrupole field applied
 Nucleus-field energy     =     0.0000000252 hartrees
 Guess from superposition of atomic densities
 Warning:  Energy on first SCF cycle will be non-variational
 SAD guess density has 102.000000 electrons

 -----------------------------------------------------------------------
  General SCF calculation program by
  Eric Jon Sundstrom, Paul Horn, Yuezhi Mao, Dmitri Zuev, Alec White,
  David Stuck, Shaama M.S., Shane Yost, Joonho Lee, David Small,
  Daniel Levine, Susi Lehtola, Hugh Burton, Evgeny Epifanovsky,
  Bang C. Huynh
 -----------------------------------------------------------------------
 Exchange:     0.2000 Hartree-Fock + 0.0800 Slater + 0.7200 B88
 Correlation:  0.1900 VWN1RPA + 0.8100 LYP
 Using SG-1 standard quadrature grid
 A restricted SCF calculation will be
 performed using DIIS
 SCF converges when DIIS error is below 1.0e-05
 ---------------------------------------
  Cycle       Energy         DIIS error
 ---------------------------------------
    1    -703.1211015101      5.25e-02  
    2    -699.8033012328      5.77e-03  
    3    -699.6566330134      7.47e-03  
    4    -700.0158682794      1.30e-03  
    5    -700.0265680570      3.75e-04  
    6    -700.0272522536      1.76e-04  
    7    -700.0274442126      5.14e-05  
    8    -700.0274609045      1.68e-05  
    9    -700.0274629254      4.31e-06  Convergence criterion met
 ---------------------------------------
 SCF time:   CPU 56.05s  wall 60.00s 
 SCF   energy in the final basis set =     -700.0274629254
 Total energy in the final basis set =     -700.0274629254
 
 --------------------------------------------------------------
 
                    Orbital Energies (a.u.)
 --------------------------------------------------------------
 
 Alpha MOs
 -- Occupied --
-24.7424 -24.7356 -19.1769 -10.3571 -10.2499 -10.2411 -10.2057 -10.2050
-10.1907 -10.1894 -10.1884 -10.1875 -10.1850 -10.1757  -1.2845  -1.2245
 -1.0659  -0.8684  -0.8149  -0.7881  -0.7439  -0.7369  -0.6954  -0.6431
 -0.6153  -0.6144  -0.5780  -0.5583  -0.5348  -0.5195  -0.5138  -0.4969
 -0.4751  -0.4715  -0.4459  -0.4435  -0.4405  -0.4351  -0.4302  -0.4131
 -0.4101  -0.3922  -0.3840  -0.3565  -0.3514  -0.3425  -0.3208  -0.2908
 -0.2713  -0.2343  -0.2062
 -- Virtual --
 -0.0299  -0.0138   0.0356   0.0757   0.0894   0.0988   0.1152   0.1264
  0.1371   0.1416   0.1478   0.1593   0.1646   0.1780   0.1884   0.2071
  0.2226   0.2360   0.2569   0.2764   0.3096   0.3377   0.3492   0.3615
  0.4021   0.4069   0.4359   0.4803   0.4962   0.4988   0.5042   0.5158
  0.5276   0.5324   0.5526   0.5573   0.5625   0.5708   0.5794   0.5906
  0.5943   0.5966   0.6136   0.6270   0.6363   0.6509   0.6671   0.6683
  0.7024   0.7048   0.7407   0.7703   0.7907   0.7987   0.8254   0.8303
  0.8358   0.8540   0.8707   0.8819   0.8838   0.8960   0.9231   0.9296
  0.9413   0.9597   0.9756   0.9851   0.9950   1.0159   1.0256   1.0587
  1.0797   1.0948   1.1198   1.1274   1.1484   1.1670   1.1904   1.1990
  1.2083   1.2288   1.2330   1.2699   1.3006   1.3142   1.3358   1.3563
  1.3932   1.4027   1.4182   1.4242   1.4436   1.4607   1.4697   1.4826
  1.5072   1.5146   1.5220   1.5657   1.6252   1.6435   1.6805   1.7121
  1.7254   1.7550   1.7717   1.8003   1.8079   1.8142   1.8419   1.8461
  1.8504   1.8795   1.9026   1.9472   1.9538   1.9661   1.9771   1.9966
  1.9987   2.0164   2.0246   2.0607   2.0719   2.0822   2.0973   2.1249
  2.1383   2.1602   2.1725   2.2087   2.2125   2.2399   2.2633   2.2920
  2.3175   2.3236   2.3428   2.3660   2.3836   2.4061   2.4763   2.5149
  2.5298   2.5541   2.5824   2.5976   2.6517   2.6614   2.6724   2.6944
  2.7267   2.7729   2.8128   2.8440   2.9138   2.9490   3.0125   3.0166
  3.0840   3.1332   3.1953   3.3156   3.4761   4.0534   4.0918   4.1028
  4.1248   4.1485   4.1882   4.2691   4.2924   4.3520   4.4426   4.5373
  4.7362   4.8487   5.2315
 --------------------------------------------------------------
 
          Ground-State Mulliken Net Atomic Charges

     Atom                 Charge (a.u.)
  ----------------------------------------
      1 C                    -0.358347
      2 C                    -0.111557
      3 C                     0.184512
      4 C                    -0.185511
      5 C                    -0.170666
      6 C                     0.295231
      7 O                    -0.514350
      8 C                    -0.215016
      9 C                     0.144341
     10 C                    -0.325575
     11 C                     0.556019
     12 F                    -0.236991
     13 F                    -0.249017
     14 C                    -0.275359
     15 H                     0.142594
     16 H                     0.140091
     17 H                     0.126530
     18 H                     0.129984
     19 H                     0.138220
     20 H                     0.162964
     21 H                     0.151003
     22 H                     0.164005
     23 H                     0.171846
     24 H                     0.135050
  ----------------------------------------
  Sum of atomic charges =     0.000000

 -----------------------------------------------------------------
                    Cartesian Multipole Moments
 -----------------------------------------------------------------
    Charge (ESU x 10^10)
                 0.0000
    Dipole Moment (Debye)
         X      -0.6190      Y      -0.6819      Z       0.3836
       Tot       0.9976
    Quadrupole Moments (Debye-Ang)
        XX     -73.5780     XY       3.7419     YY     -77.9601
        XZ      -0.3335     YZ      -2.4902     ZZ     -81.5336
    Octopole Moments (Debye-Ang^2)
       XXX     -29.4027    XXY     -13.7573    XYY      -6.9784
       YYY      23.4360    XXZ       4.5724    XYZ       2.8584
       YYZ       5.8652    XZZ     -26.4676    YZZ       4.9054
       ZZZ       4.3637
    Hexadecapole Moments (Debye-Ang^3)
      XXXX   -2477.2249   XXXY     -15.5895   XXYY    -604.4891
      XYYY     -39.4172   YYYY   -1287.7956   XXXZ       4.4165
      XXYZ       1.1843   XYYZ      -8.8756   YYYZ     -15.7084
      XXZZ    -473.9969   XYZZ     -23.2704   YYZZ    -242.7415
      XZZZ      -0.9858   YZZZ       9.3130   ZZZZ    -133.9661
 -----------------------------------------------------------------
 Total job time:  63.08s(wall), 56.50s(cpu) 
 Fri Aug 12 13:12:46 2022

        *************************************************************
        *                                                           *
        *  Thank you very much for using Q-Chem.  Have a nice day.  *
        *                                                           *
        *************************************************************


