20
 energy: -43.340425671350 gnorm: 0.000045315113 xtb: 6.5.0 (unknown)
C            1.95445879920000       -2.14443421120000        0.98391958250000
C            1.09723793090000       -2.14109187220000       -0.02518735640000
C           -0.10208818380000       -1.29956585120000       -0.09699854290000
C           -1.30448878040000       -1.90536963580000       -0.45728597400000
C           -2.49965191960000       -1.21435138590000       -0.44574664320000
C           -2.50294655950000        0.11704156220000       -0.06931125100000
F           -3.65752603110000        0.80137587980000       -0.03831779520000
C           -1.31357696670000        0.74690716460000        0.26346804420000
F           -1.32216902880000        2.05000582580000        0.59705551040000
C           -0.09774248440000        0.06303426780000        0.23747227960000
C            1.10944122290000        0.83947604210000        0.53121243200000
C            2.22829630110000        0.79735119970000       -0.17080037000000
F            2.47321597390000        0.03257546380000       -1.22542689690000
F            3.29579882040000        1.54018335530000        0.09280361440000
H            2.79453095120000       -2.81631026380000        1.00577019270000
H            1.84444185300000       -1.48595656670000        1.82975273360000
H            1.21418287730000       -2.84365998020000       -0.83938550500000
H           -1.29931117060000       -2.94917140890000       -0.73124950850000
H           -3.42923533270000       -1.68794330630000       -0.71680373650000
H            1.05086190880000        1.57170342100000        1.32287820820000
