
Running Job 1 of 1 tidas/B036/conf-3/spe_input.inp
qchem tidas/B036/conf-3/spe_input.inp_147581.0 /home/a/aspuru/seifridm/acdc_laser/descriptor_computation/qchem147581/ 0
/gpfs/fs1/scinet/niagara/software/commercial/qc54/exe/qcprog.exe_s tidas/B036/conf-3/spe_input.inp_147581.0 /home/a/aspuru/seifridm/acdc_laser/descriptor_computation/qchem147581/
                  Welcome to Q-Chem
     A Quantum Leap Into The Future Of Chemistry


 Q-Chem 5.4, Q-Chem, Inc., Pleasanton, CA (2021)

 License issued to: SRG Alan Aspuru-Guzik, University of Toronto

 E. Epifanovsky,  A. T. B. Gilbert,  Xintian Feng,  Joonho Lee,  Yuezhi Mao,  
 N. Mardirossian,  P. Pokhilko,  A. White,  M. Wormit,  M. P. Coons,  
 A. L. Dempwolff,  Zhengting Gan,  D. Hait,  P. R. Horn,  L. D. Jacobson,  
 I. Kaliman,  J. Kussmann,  A. W. Lange,  Ka Un Lao,  D. S. Levine,  Jie Liu,  
 S. C. McKenzie,  A. F. Morrison,  K. Nanda,  F. Plasser,  D. R. Rehn,  
 M. L. Vidal,  Zhi-Qiang You,  Ying Zhu,  B. Alam,  B. Albrecht,  
 A. Aldossary,  E. Alguire,  J. H. Andersen,  D. Barton,  K. Begam,  A. Behn,  
 Y. A. Bernard,  E. J. Berquist,  H. Burton,  A. Carreras,  K. Carter-Fenk,  
 Romit Chakraborty,  A. D. Chien,  K. D. Closser,  V. Cofer-Shabica,  
 S. Dasgupta,  Jia Deng,  M. de Wergifosse,  M. Diedenhofen,  Hainam Do,  
 S. Ehlert,  Po-Tung Fang,  S. Fatehi,  Qingguo Feng,  T. Friedhoff,  
 J. Gayvert,  Qinghui Ge,  G. Gidofalvi,  M. Goldey,  J. Gomes,  
 C. Gonzalez-Espinoza,  S. Gulania,  A. Gunina,  M. W. D. Hanson-Heine,  
 P. H. P. Harbach,  A. W. Hauser,  M. F. Herbst,  M. Hernandez Vera,  
 M. Hodecker,  Z. C. Holden,  S. Houck,  Xunkun Huang,  Kerwin Hui,  
 B. C. Huynh,  M. Ivanov,  Hyunjun Ji,  Hanjie Jiang,  B. Kaduk,  S. Kaehler,  
 K. Khistyaev,  Jaehoon Kim,  P. Klunzinger,  Z. Koczor-Benda,  
 Joong Hoon Koh,  D. Kosenkov,  L. Koulias,  T. Kowalczyk,  C. M. Krauter,  
 K. Kue,  A. Kunitsa,  T. Kus,  A. Landau,  K. V. Lawler,  D. Lefrancois,  
 S. Lehtola,  Rain Li,  Yi-Pei Li,  Jiashu Liang,  M. Liebenthal,  
 Hung-Hsuan Lin,  You-Sheng Lin,  Fenglai Liu,  Kuan-Yu Liu,  
 M. Loipersberger,  A. Luenser,  A. Manjanath,  P. Manohar,  E. Mansoor,  
 S. F. Manzer,  Shan-Ping Mao,  A. V. Marenich,  T. Markovich,  S. Mason,  
 S. A. Maurer,  P. F. McLaughlin,  M. F. S. J. Menger,  J.-M. Mewes,  
 S. A. Mewes,  P. Morgante,  J. W. Mullinax,  K. J. Oosterbaan,  G. Paran,  
 Alexander C. Paul,  Suranjan K. Paul,  F. Pavosevic,  Zheng Pei,  S. Prager,  
 E. I. Proynov,  E. Ramos,  B. Rana,  A. E. Rask,  A. Rettig,  R. M. Richard,  
 F. Rob,  E. Rossomme,  T. Scheele,  M. Scheurer,  M. Schneider,  
 N. Sergueev,  S. M. Sharada,  W. Skomorowski,  D. W. Small,  C. J. Stein,  
 Yu-Chuan Su,  E. J. Sundstrom,  Zhen Tao,  J. Thirman,  T. Tsuchimochi,  
 N. M. Tubman,  S. P. Veccham,  O. Vydrov,  J. Wenzel,  J. Witte,  A. Yamada,  
 Kun Yao,  S. Yeganeh,  S. R. Yost,  A. Zech,  Igor Ying Zhang,  Xing Zhang,  
 Yu Zhang,  D. Zuev,  A. Aspuru-Guzik,  A. T. Bell,  N. A. Besley,  
 K. B. Bravaya,  B. R. Brooks,  D. Casanova,  Jeng-Da Chai,  S. Coriani,  
 C. J. Cramer,  A. E. DePrince, III,  R. A. DiStasio Jr.,  A. Dreuw,  
 B. D. Dunietz,  T. R. Furlani,  W. A. Goddard III,  S. Grimme,  
 S. Hammes-Schiffer,  T. Head-Gordon,  W. J. Hehre,  Chao-Ping Hsu,  
 T.-C. Jagau,  Yousung Jung,  A. Klamt,  Jing Kong,  D. S. Lambrecht,  
 WanZhen Liang,  N. J. Mayhall,  C. W. McCurdy,  J. B. Neaton,  T. Neudecker,  
 C. Ochsenfeld,  J. A. Parkhill,  R. Peverati,  V. A. Rassolov,  Yihan Shao,  
 L. V. Slipchenko,  R. P. Steele,  J. E. Subotnik,  A. J. W. Thom,  
 A. Tkatchenko,  D. G. Truhlar,  T. Van Voorhis,  T. A. Wesolowski,  
 K. B. Whaley,  H. L. Woodcock III,  P. M. Zimmerman,  S. Faraji,  
 P. M. W. Gill,  M. Head-Gordon,  J. M. Herbert,  A. I. Krylov

 Additional authors since Version 5.4.0: 
 Chandrima Chakravarty,  L. Cunha,  R. Kang,  Yongbin Kim,  S. Kotaru,  
 Shaozhi Li,  Xiangyuan Li,  F. Matz,  A. Molle,  V. Parravicini,  
 Haisheng Ren,  Hengyuan Shen,  Yingli Su,  Hung-Yi Tsai,  C. Utku,  
 Fang Wang,  Jeff Yang,  F. Zeller

 Contributors to earlier versions of Q-Chem not listed above: 
 R. D. Adamson,  B. Austin,  R. Baer,  J. Baker,  G. J. O. Beran,  
 K. Brandhorst,  S. T. Brown,  E. F. C. Byrd,  Arup K. Chakraborty,  
 G. K. L. Chan,  Chun-Min Chang,  Yunqing Chen,  C.-L. Cheng,  
 Siu Hung Chien,  D. M. Chipman,  D. L. Crittenden,  H. Dachsel,  
 R. J. Doerksen,  A. D. Dutoi,  R. G. Edgar,  J. Fosso-Tande,  
 L. Fusti-Molnar,  D. Ghosh,  A. Ghysels,  A. Golubeva-Zadorozhnaya,  
 J. Gonthier,  M. S. Gordon,  S. R. Gwaltney,  G. Hawkins,  J. E. Herr,  
 A. Heyden,  S. Hirata,  E. G. Hohenstein,  G. Kedziora,  F. J. Keil,  
 C. Kelley,  Jihan Kim,  R. A. King,  R. Z. Khaliullin,  P. P. Korambath,  
 W. Kurlancheek,  A. Laurent,  A. M. Lee,  M. S. Lee,  S. V. Levchenko,  
 Ching Yeh Lin,  D. Liotard,  E. Livshits,  R. C. Lochan,  I. Lotan,  
 L. A. Martinez-Martinez,  P. E. Maslen,  N. Nair,  D. P. O'Neill,  
 D. Neuhauser,  E. Neuscamman,  C. M. Oana,  R. Olivares-Amaya,  R. Olson,  
 T. M. Perrine,  B. Peters,  P. A. Pieniazek,  A. Prociuk,  Y. M. Rhee,  
 J. Ritchie,  M. A. Rohrdanz,  E. Rosta,  N. J. Russ,  H. F. Schaefer III,  
 M. W. Schmidt,  N. E. Schultz,  S. Sharma,  N. Shenvi,  C. D. Sherrill,  
 A. C. Simmonett,  A. Sodt,  T. Stein,  D. Stuck,  K. S. Thanthiriwatte,  
 V. Vanovschi,  L. Vogt,  Tao Wang,  A. Warshel,  M. A. Watson,  
 C. F. Williams,  Q. Wu,  X. Xu,  Jun Yang,  W. Zhang,  Yan Zhao

   Please cite Q-Chem as follows:
  "Software for the frontiers of quantum chemistry:
   An overview of developments in the Q-Chem 5 package"
   J. Chem. Phys. 155, 084801 (2021)
   https://doi.org/10.1063/5.0055522 (open access)

 Q-Chem 5.4.2 for Intel X86 EM64T Linux

 Parts of Q-Chem use Armadillo 9.900.5 (Nocturnal Misbehaviour).
 http://arma.sourceforge.net/

 Q-Chem begins on Fri Aug 12 13:12:32 2022  

 Host: 
0

     Scratch files written to /home/a/aspuru/seifridm/acdc_laser/descriptor_computation/qchem147581//
 Dec1321 |scratch|qcdevops|jenkins|workspace|build_RNUM 6959   
 Processing $rem in /gpfs/fs1/scinet/niagara/software/commercial/qc54/config/preferences:
 Processing $rem in /home/a/aspuru/seifridm/.qchemrc:

 Checking the input file for inconsistencies... 	...done.

--------------------------------------------------------------
User input:
--------------------------------------------------------------
$molecule
0 1
C           -2.70134506910000       -3.00708807770000       -0.17428804090000
C           -3.03906226710000       -1.74625701020000        0.06755559630000
C           -2.13473828300000       -0.60404528390000        0.11880905120000
C           -2.66211385780000        0.68935960370000        0.12088816180000
C           -1.83257982720000        1.78823571550000        0.13172541770000
C           -0.44708455650000        1.64478008050000        0.16542511930000
O            0.27054783950000        2.80749794520000        0.16609733490000
C            1.43965349210000        2.91059619530000       -0.62445297520000
C            0.10414845420000        0.35326943080000        0.23187904240000
C            1.53963617580000        0.15768705780000        0.43273649600000
C            2.25935820760000       -0.86606550650000        0.00508349560000
F            1.84911205170000       -1.88230107610000       -0.74700835270000
F            3.55987733440000       -1.00988620800000        0.25915785940000
C           -0.75279818430000       -0.74290405960000        0.18957991040000
H           -3.44081676620000       -3.78883324840000       -0.20018815810000
H           -1.68658857780000       -3.31138000030000       -0.36519364970000
H           -4.08203965130000       -1.50073794170000        0.22648649310000
H           -3.73277254880000        0.82963713780000        0.09278410550000
H           -2.23485656050000        2.78912319360000        0.11207285210000
H            1.35621682600000        3.83785084990000       -1.19675770530000
H            1.54032793650000        2.07334899940000       -1.31664112820000
H            2.32924029820000        2.97207117490000        0.00788614260000
H            2.06672730090000        0.89685013640000        1.01627612830000
H           -0.32770364800000       -1.73068426880000        0.25836913530000
$end

$rem
BASIS = 6-31G*
GUI = 2
METHOD = B3LYP
PRINT_ORBITALS false
MOLDEN_FORMAT false
$end
--------------------------------------------------------------
 ----------------------------------------------------------------
             Standard Nuclear Orientation (Angstroms)
    I     Atom           X                Y                Z
 ----------------------------------------------------------------
    1      C       3.4955134539    -1.9839356098     0.1939961166
    2      C       3.3966246893    -0.6773221482    -0.0186503165
    3      C       2.1634096656     0.0978576001    -0.0765595203
    4      C       2.2273948050     1.4927995259    -0.0438723934
    5      C       1.0783177731     2.2511753242    -0.0600274671
    6      C      -0.1782592441     1.6537743302    -0.1337742398
    7      O      -1.2434888352     2.5094563451    -0.1357103069
    8      C      -2.3955758084     2.1969160559     0.6241720805
    9      C      -0.2639535210     0.2542867499    -0.2355814974
   10      C      -1.5467646541    -0.4049283005    -0.4785882760
   11      C      -1.8909122816    -1.6202921080    -0.0869131163
   12      F      -1.1796611911    -2.4587051820     0.6599899518
   13      F      -3.0628055934    -2.1843540179    -0.3786122819
   14      C       0.9094012856    -0.4931353553    -0.1871896257
   15      H       4.4532914440    -2.4739734131     0.2277450688
   16      H       2.6374507149    -2.6143557045     0.3523252119
   17      H       4.3002919176    -0.0936123306    -0.1451764254
   18      H       3.1885412072     1.9821188581     0.0156409823
   19      H       1.1219075148     3.3281789291    -0.0136409751
   20      H      -2.6390197444     3.0847347158     1.2130767017
   21      H      -2.2243473136     1.3578262382     1.3000801588
   22      H      -3.2413073133     1.9726884252    -0.0311574624
   23      H      -2.2788060108     0.1293372487    -1.0645758086
   24      H       0.8409323457    -1.5642373142    -0.2831044934
 ----------------------------------------------------------------
 Molecular Point Group                 C1    NOp =  1
 Largest Abelian Subgroup              C1    NOp =  1
 Nuclear Repulsion Energy =         857.50277861 hartrees
 There are       51 alpha and       51 beta electrons
 Requested basis set is 6-31G(d)
 There are 76 shells and 230 basis functions

 Total QAlloc Memory Limit   8000 MB
 Mega-Array Size       188 MB
 MEM_STATIC part       192 MB
 A cutoff of  1.0D-08 yielded   1916 shell pairs
 There are     18803 function pairs
 Smallest overlap matrix eigenvalue = 3.44E-04

 Scale SEOQF with 1.000000e-01/1.000000e-01/1.000000e+00

 Standard Electronic Orientation quadrupole field applied
 Nucleus-field energy     =     0.0000000248 hartrees
 Guess from superposition of atomic densities
 Warning:  Energy on first SCF cycle will be non-variational
 SAD guess density has 102.000000 electrons

 -----------------------------------------------------------------------
  General SCF calculation program by
  Eric Jon Sundstrom, Paul Horn, Yuezhi Mao, Dmitri Zuev, Alec White,
  David Stuck, Shaama M.S., Shane Yost, Joonho Lee, David Small,
  Daniel Levine, Susi Lehtola, Hugh Burton, Evgeny Epifanovsky,
  Bang C. Huynh
 -----------------------------------------------------------------------
 Exchange:     0.2000 Hartree-Fock + 0.0800 Slater + 0.7200 B88
 Correlation:  0.1900 VWN1RPA + 0.8100 LYP
 Using SG-1 standard quadrature grid
 A restricted SCF calculation will be
 performed using DIIS
 SCF converges when DIIS error is below 1.0e-05
 ---------------------------------------
  Cycle       Energy         DIIS error
 ---------------------------------------
    1    -703.1184713715      5.25e-02  
    2    -699.8029530560      5.78e-03  
    3    -699.6562522807      7.48e-03  
    4    -700.0158746315      1.31e-03  
    5    -700.0265512018      4.18e-04  
    6    -700.0274293731      1.97e-04  
    7    -700.0276820243      4.15e-05  
    8    -700.0276927732      1.29e-05  
    9    -700.0276939541      4.11e-06  Convergence criterion met
 ---------------------------------------
 SCF time:   CPU 55.77s  wall 58.00s 
 SCF   energy in the final basis set =     -700.0276939541
 Total energy in the final basis set =     -700.0276939541
 
 --------------------------------------------------------------
 
                    Orbital Energies (a.u.)
 --------------------------------------------------------------
 
 Alpha MOs
 -- Occupied --
-24.7430 -24.7358 -19.1753 -10.3574 -10.2489 -10.2404 -10.2063 -10.2049
-10.1908 -10.1887 -10.1886 -10.1877 -10.1843 -10.1760  -1.2849  -1.2248
 -1.0643  -0.8683  -0.8147  -0.7883  -0.7407  -0.7393  -0.6925  -0.6471
 -0.6236  -0.6028  -0.5784  -0.5562  -0.5365  -0.5213  -0.5182  -0.4889
 -0.4771  -0.4695  -0.4443  -0.4426  -0.4405  -0.4358  -0.4312  -0.4216
 -0.4077  -0.3914  -0.3793  -0.3583  -0.3479  -0.3466  -0.3174  -0.2904
 -0.2720  -0.2330  -0.2077
 -- Virtual --
 -0.0256  -0.0219   0.0423   0.0746   0.0886   0.0995   0.1181   0.1268
  0.1356   0.1421   0.1505   0.1588   0.1638   0.1809   0.1863   0.2023
  0.2113   0.2405   0.2597   0.2768   0.3140   0.3387   0.3418   0.3646
  0.4034   0.4071   0.4317   0.4802   0.4944   0.4963   0.5068   0.5119
  0.5243   0.5341   0.5488   0.5575   0.5694   0.5748   0.5800   0.5921
  0.5959   0.6050   0.6122   0.6188   0.6275   0.6545   0.6594   0.6932
  0.6989   0.7072   0.7328   0.7683   0.7902   0.7980   0.8256   0.8320
  0.8371   0.8526   0.8726   0.8793   0.8837   0.8910   0.9228   0.9259
  0.9389   0.9578   0.9669   0.9808   0.9991   1.0192   1.0427   1.0462
  1.0893   1.0970   1.1032   1.1296   1.1437   1.1639   1.1854   1.2009
  1.2118   1.2218   1.2476   1.2658   1.2884   1.2981   1.3325   1.3554
  1.3953   1.4009   1.4089   1.4252   1.4468   1.4654   1.4698   1.4861
  1.5068   1.5190   1.5294   1.5790   1.6099   1.6499   1.6834   1.7145
  1.7330   1.7451   1.7698   1.8017   1.8125   1.8161   1.8363   1.8442
  1.8499   1.8756   1.8974   1.9455   1.9555   1.9665   1.9759   1.9840
  1.9989   2.0152   2.0403   2.0592   2.0678   2.0777   2.0991   2.1246
  2.1396   2.1536   2.1663   2.2100   2.2383   2.2459   2.2686   2.2823
  2.3189   2.3247   2.3391   2.3600   2.3741   2.4153   2.4781   2.5120
  2.5221   2.5521   2.5836   2.6053   2.6527   2.6535   2.6741   2.6964
  2.7400   2.7826   2.8057   2.8434   2.8981   2.9545   3.0095   3.0212
  3.0743   3.1299   3.1932   3.3179   3.4746   4.0506   4.0921   4.1088
  4.1218   4.1403   4.1916   4.2694   4.2874   4.3449   4.4450   4.5305
  4.7384   4.8491   5.2301
 --------------------------------------------------------------
 
          Ground-State Mulliken Net Atomic Charges

     Atom                 Charge (a.u.)
  ----------------------------------------
      1 C                    -0.353157
      2 C                    -0.118347
      3 C                     0.182373
      4 C                    -0.200058
      5 C                    -0.168197
      6 C                     0.291060
      7 O                    -0.515639
      8 C                    -0.215787
      9 C                     0.148620
     10 C                    -0.322969
     11 C                     0.555503
     12 F                    -0.237147
     13 F                    -0.248700
     14 C                    -0.263368
     15 H                     0.142261
     16 H                     0.143676
     17 H                     0.126173
     18 H                     0.130229
     19 H                     0.137371
     20 H                     0.161680
     21 H                     0.163669
     22 H                     0.152099
     23 H                     0.172574
     24 H                     0.136081
  ----------------------------------------
  Sum of atomic charges =     0.000000

 -----------------------------------------------------------------
                    Cartesian Multipole Moments
 -----------------------------------------------------------------
    Charge (ESU x 10^10)
                 0.0000
    Dipole Moment (Debye)
         X      -0.5188      Y       0.6517      Z       0.5202
       Tot       0.9821
    Quadrupole Moments (Debye-Ang)
        XX     -72.1471     XY      -2.4260     YY     -79.1271
        XZ      -1.2807     YZ       2.1987     ZZ     -81.3677
    Octopole Moments (Debye-Ang^2)
       XXX     -28.0286    XXY      10.0732    XYY      -1.4002
       YYY     -24.8288    XXZ       3.5036    XYZ      -4.6589
       YYZ       7.0552    XZZ     -24.1069    YZZ      -7.3007
       ZZZ       3.7929
    Hexadecapole Moments (Debye-Ang^3)
      XXXX   -2122.0211   XXXY      11.6770   XXYY    -588.3312
      XYYY      48.5097   YYYY   -1453.4528   XXXZ      -5.5721
      XXYZ      -0.5858   XYYZ      -8.4998   YYYZ      12.2573
      XXZZ    -414.4676   XYZZ      20.0975   YYZZ    -271.8167
      XZZZ       0.6157   YZZZ      -5.5893   ZZZZ    -138.2332
 -----------------------------------------------------------------
 Total job time:  58.63s(wall), 56.29s(cpu) 
 Fri Aug 12 13:13:31 2022

        *************************************************************
        *                                                           *
        *  Thank you very much for using Q-Chem.  Have a nice day.  *
        *                                                           *
        *************************************************************


