
Running Job 1 of 1 fragments/C063/conf-9/spe_input.inp
qchem fragments/C063/conf-9/spe_input.inp_276432.0 /gpfs/fs0/scratch/a/aspuru/rhickman/descriptor_computation/qchem276432/ 0
/scinet/niagara/software/commercial/qc52/exe/qcprog.exe_s fragments/C063/conf-9/spe_input.inp_276432.0 /gpfs/fs0/scratch/a/aspuru/rhickman/descriptor_computation/qchem276432/
                  Welcome to Q-Chem
     A Quantum Leap Into The Future Of Chemistry


 Q-Chem 5.2, Q-Chem, Inc., Pleasanton, CA (2019)

 License issued to: SRG Alan Aspuru-Guzik, University of Toronto

 Yihan Shao,  Zhengting Gan,  E. Epifanovsky,  A. T. B. Gilbert,  M. Wormit,  
 J. Kussmann,  A. W. Lange,  A. Behn,  Jia Deng,  Xintian Feng,  D. Ghosh,  
 M. Goldey,  P. R. Horn,  L. D. Jacobson,  I. Kaliman,  T. Kus,  A. Landau,  
 Jie Liu,  E. I. Proynov,  R. M. Richard,  R. P. Steele,  E. J. Sundstrom,  
 H. L. Woodcock III,  P. M. Zimmerman,  D. Zuev,  B. Albrecht,  E. Alguire,  
 S. A. Baeppler,  D. Barton,  Z. Benda,  Y. A. Bernard,  E. J. Berquist,  
 K. B. Bravaya,  H. Burton,  D. Casanova,  Chun-Min Chang,  Yunqing Chen,  
 A. Chien,  K. D. Closser,  M. P. Coons,  S. Coriani,  S. Dasgupta,  
 A. L. Dempwolff,  M. Diedenhofen,  Hainam Do,  R. G. Edgar,  Po-Tung Fang,  
 S. Faraji,  S. Fatehi,  Qingguo Feng,  K. D. Fenk,  J. Fosso-Tande,  
 J. Gayvert,  Qinghui Ge,  A. Ghysels,  G. Gidofalvi,  J. Gomes,  
 J. Gonthier,  A. Gunina,  D. Hait,  M. W. D. Hanson-Heine,  
 P. H. P. Harbach,  A. W. Hauser,  M. F. Herbst,  J. E. Herr,  
 E. G. Hohenstein,  Z. C. Holden,  Kerwin Hui,  B. C. Huynh,  T.-C. Jagau,  
 Hyunjun Ji,  B. Kaduk,  K. Khistyaev,  Jaehoon Kim,  P. Klunzinger,  K. Koh,  
 D. Kosenkov,  L. Koulias,  T. Kowalczyk,  C. M. Krauter,  A. Kunitsa,  
 Ka Un Lao,  A. Laurent,  K. V. Lawler,  Joonho Lee,  D. Lefrancois,  
 S. Lehtola,  D. S. Levine,  Yi-Pei Li,  You-Sheng Lin,  Fenglai Liu,  
 E. Livshits,  A. Luenser,  P. Manohar,  E. Mansoor,  S. F. Manzer,  
 Shan-Ping Mao,  Yuezhi Mao,  N. Mardirossian,  A. V. Marenich,  
 T. Markovich,  L. A. Martinez-Martinez,  S. A. Maurer,  N. J. Mayhall,  
 S. C. McKenzie,  J.-M. Mewes,  P. Morgante,  A. F. Morrison,  
 J. W. Mullinax,  K. Nanda,  T. S. Nguyen-Beck,  R. Olivares-Amaya,  
 J. A. Parkhill,  Zheng Pei,  T. M. Perrine,  F. Plasser,  P. Pokhilko,  
 S. Prager,  A. Prociuk,  E. Ramos,  D. R. Rehn,  F. Rob,  M. Scheurer,  
 M. Schneider,  N. Sergueev,  S. M. Sharada,  S. Sharma,  D. W. Small,  
 T. Stauch,  T. Stein,  Yu-Chuan Su,  A. J. W. Thom,  A. Tkatchenko,  
 T. Tsuchimochi,  N. M. Tubman,  L. Vogt,  M. L. Vidal,  O. Vydrov,  
 M. A. Watson,  J. Wenzel,  M. de Wergifosse,  T. A. Wesolowski,  A. White,  
 J. Witte,  A. Yamada,  Jun Yang,  K. Yao,  S. Yeganeh,  S. R. Yost,  
 Zhi-Qiang You,  A. Zech,  Igor Ying Zhang,  Xing Zhang,  Yan Zhao,  
 Ying Zhu,  B. R. Brooks,  G. K. L. Chan,  C. J. Cramer,  M. S. Gordon,  
 W. J. Hehre,  A. Klamt,  M. W. Schmidt,  C. D. Sherrill,  D. G. Truhlar,  
 A. Aspuru-Guzik,  R. Baer,  A. T. Bell,  N. A. Besley,  Jeng-Da Chai,  
 A. E. DePrince, III,  R. A. DiStasio Jr.,  A. Dreuw,  B. D. Dunietz,  
 T. R. Furlani,  Chao-Ping Hsu,  Yousung Jung,  Jing Kong,  D. S. Lambrecht,  
 WanZhen Liang,  C. Ochsenfeld,  V. A. Rassolov,  L. V. Slipchenko,  
 J. E. Subotnik,  T. Van Voorhis,  J. M. Herbert,  A. I. Krylov,  
 P. M. W. Gill,  M. Head-Gordon

 Contributors to earlier versions of Q-Chem not listed above: 
 R. D. Adamson,  B. Austin,  J. Baker,  G. J. O. Beran,  K. Brandhorst,  
 S. T. Brown,  E. F. C. Byrd,  A. K. Chakraborty,  C.-L. Cheng,  
 Siu Hung Chien,  D. M. Chipman,  D. L. Crittenden,  H. Dachsel,  
 R. J. Doerksen,  A. D. Dutoi,  L. Fusti-Molnar,  W. A. Goddard III,  
 A. Golubeva-Zadorozhnaya,  S. R. Gwaltney,  G. Hawkins,  A. Heyden,  
 S. Hirata,  G. Kedziora,  F. J. Keil,  C. Kelley,  Jihan Kim,  R. A. King,  
 R. Z. Khaliullin,  P. P. Korambath,  W. Kurlancheek,  A. M. Lee,  M. S. Lee,  
 S. V. Levchenko,  Ching Yeh Lin,  D. Liotard,  R. C. Lochan,  I. Lotan,  
 P. E. Maslen,  N. Nair,  D. P. O'Neill,  D. Neuhauser,  E. Neuscamman,  
 C. M. Oana,  R. Olson,  B. Peters,  R. Peverati,  P. A. Pieniazek,  
 Y. M. Rhee,  J. Ritchie,  M. A. Rohrdanz,  E. Rosta,  N. J. Russ,  
 H. F. Schaefer III,  N. E. Schultz,  N. Shenvi,  A. C. Simmonett,  A. Sodt,  
 D. Stuck,  K. S. Thanthiriwatte,  V. Vanovschi,  Tao Wang,  A. Warshel,  
 C. F. Williams,  Q. Wu,  X. Xu,  W. Zhang

 Please cite Q-Chem as follows:
 Y. Shao et al., Mol. Phys. 113, 184-215 (2015)
 DOI: 10.1080/00268976.2014.952696

 Q-Chem 5.2.1 for Intel X86 EM64T Linux

 Parts of Q-Chem use Armadillo 8.300.2 (Tropical Shenanigans).
 http://arma.sourceforge.net/

 Q-Chem begins on Mon Feb  7 10:08:56 2022  

Host: 
0

     Scratch files written to /gpfs/fs0/scratch/a/aspuru/rhickman/descriptor_computation/qchem276432//
 Jul1719 |scratch|qcdevops|jenkins|workspace|build_RNUM -1
Processing $rem in /scinet/niagara/software/commercial/qc52/config/preferences:
	 MEM_TOTAL  4000 
NAlpha2: 132
NElect   132
Mult     1

Checking the input file for inconsistencies... 	...done.

--------------------------------------------------------------
User input:
--------------------------------------------------------------
$molecule
0 1
C         4.74439407340000   -2.78304840480000    0.09148630790000
C         4.33633713380000   -1.57301917890000   -0.27258001770000
C         3.04255159870000   -0.96679000430000    0.01057180740000
C         2.03793857100000   -1.60608647950000    0.74062558300000
C         0.82055157330000   -0.99560211140000    0.93627678580000
C         0.55693271150000    0.28294888860000    0.44020068100000
O        -0.71115569630000    0.74842793880000    0.64941598830000
C        -1.35093871960000    1.50432152660000   -0.35787550970000
C        -2.79441481170000    1.02546872550000   -0.64455866410000
C        -3.63246714290000    0.80142479080000    0.62213333660000
C        -3.33539986820000   -0.54600277370000    1.27740244390000
C        -3.44731274720000   -1.64948788590000    0.22972472350000
C        -2.52192599360000   -1.32196293070000   -0.93941121530000
O        -2.83882869090000   -0.07543093360000   -1.52809071380000
C         1.57873420470000    0.97893723090000   -0.22145888180000
C         1.49484585920000    2.39014605200000   -0.61439528730000
C         1.03840681320000    3.35197087860000    0.17478476880000
C         2.78308935350000    0.31986938100000   -0.45102194990000
H         5.72470734410000   -3.14389377440000   -0.16839932550000
H         4.12906596880000   -3.46110626140000    0.65727903440000
H         5.01002840920000   -0.94427531630000   -0.84258179730000
H         2.20021552940000   -2.59478397370000    1.13923603130000
H         0.03610950150000   -1.50216271630000    1.47868052770000
H        -0.78995646230000    1.45259707700000   -1.29702593700000
H        -1.39997179740000    2.55480524050000   -0.04205803710000
H        -3.24969052680000    1.83619963040000   -1.22961442840000
H        -4.68691077070000    0.83052115900000    0.33706414740000
H        -3.44111139010000    1.61643417430000    1.32049956090000
H        -4.04133217530000   -0.72088876970000    2.09212544830000
H        -2.32844965120000   -0.53344329130000    1.69301888240000
H        -4.47508454090000   -1.70756508900000   -0.13567558770000
H        -3.17311087690000   -2.61736200430000    0.65143434300000
H        -2.63789188750000   -2.04869096480000   -1.74752762390000
H        -1.47681839770000   -1.33702408040000   -0.60484569050000
H         1.92143378100000    2.63525767670000   -1.57976822190000
H         0.65911112450000    3.14140005470000    1.16132426870000
H         1.04235103780000    4.38507391040000   -0.12885930010000
H         3.55879635280000    0.85327708880000   -0.98412224650000
$end

$rem
BASIS = 6-31G*
GUI = 2
METHOD = B3LYP
PRINT_ORBITALS false
MOLDEN_FORMAT false
--------------------------------------------------------------
 ----------------------------------------------------------------
             Standard Nuclear Orientation (Angstroms)
    I     Atom           X                Y                Z
 ----------------------------------------------------------------
    1      C       5.1599752050    -1.9651525255    -0.1228370016
    2      C       4.5607041574    -0.8059610944    -0.3685500875
    3      C       3.1860166473    -0.4488628280    -0.0456184280
    4      C       2.2991310523    -1.3134947396     0.5999599426
    5      C       0.9990513177    -0.9309011990     0.8374815738
    6      C       0.5310584862     0.3324192194     0.4696727974
    7      O      -0.7955202127     0.5631085540     0.7051752125
    8      C      -1.5504517090     1.3052018227    -0.2300839020
    9      C      -2.8974469342     0.6316173603    -0.5864521104
   10      C      -3.6867771158     0.1463450896     0.6376821579
   11      C      -3.1744459525    -1.1955281470     1.1573749577
   12      C      -3.1069783030    -2.1891041002     0.0014824746
   13      C      -2.2481534290    -1.5981825858    -1.1137411277
   14      O      -2.7636260444    -0.3653814008    -1.5777477144
   15      C       1.4257802146     1.2484467538    -0.1018497533
   16      C       1.1137285825     2.6603961877    -0.3507858598
   17      C       0.5081453541     3.4497266977     0.5246997542
   18      C       2.7208454899     0.8195460562    -0.3782391192
   19      H       6.1855674523    -2.1343926892    -0.4026268179
   20      H       4.6633395672    -2.7881194583     0.3615089630
   21      H       5.1229238386    -0.0215434405    -0.8611744701
   22      H       2.6200152091    -2.2986665298     0.8986516526
   23      H       0.3077030309    -1.6104369047     1.3133214637
   24      H      -0.9894647067     1.4414364930    -1.1607362187
   25      H      -1.7688841206     2.2959318218     0.1899188390
   26      H      -3.4787774568     1.4139586208    -1.0932536494
   27      H      -4.7322694950     0.0339615298     0.3405659753
   28      H      -3.6294238000     0.9054709148     1.4180739065
   29      H      -3.8418383719    -1.5648081678     1.9389878622
   30      H      -2.1824410410    -1.0633314580     1.5878326154
   31      H      -4.1120957730    -2.3744957387    -0.3839705327
   32      H      -2.6790047533    -3.1381414589     0.3270169742
   33      H      -2.2455445480    -2.2472171507    -1.9931620629
   34      H      -1.2140993184    -1.4786131589    -0.7661119228
   35      H       1.4939322140     3.0689812187    -1.2794975144
   36      H       0.1690274613     3.0805050255     1.4787122739
   37      H       0.3441765894     4.4955640839     0.3275816228
   38      H       3.3992296975     1.5230674143    -0.8422365580
 ----------------------------------------------------------------
 Molecular Point Group                 C1    NOp =  1
 Largest Abelian Subgroup              C1    NOp =  1
 Nuclear Repulsion Energy =        1325.81750191 hartrees
 There are       66 alpha and       66 beta electrons
 Requested basis set is 6-31G(d)
 There are 112 shells and 310 basis functions

 Total QAlloc Memory Limit   4000 MB
 Mega-Array Size       188 MB
 MEM_STATIC part       192 MB
 A cutoff of  1.0D-08 yielded   3653 shell pairs
 There are     30225 function pairs
 Smallest overlap matrix eigenvalue = 3.32E-04

 Scale SEOQF with 1.000000e-02/1.000000e-01/1.000000e-01

 Standard Electronic Orientation quadrupole field applied
 Nucleus-field energy     =     0.0000000193 hartrees
 Guess from superposition of atomic densities
 Warning:  Energy on first SCF cycle will be non-variational
 SAD guess density has 132.000000 electrons

 -----------------------------------------------------------------------
  General SCF calculation program by
  Eric Jon Sundstrom, Paul Horn, Yuezhi Mao, Dmitri Zuev, Alec White,
  David Stuck, Shaama M.S., Shane Yost, Joonho Lee, David Small,
  Daniel Levine, Susi Lehtola, Hugh Burton, Evgeny Epifanovsky,
  Bang C. Huynh
 -----------------------------------------------------------------------
 Exchange:     0.2000 Hartree-Fock + 0.0800 Slater + 0.7200 B88
 Correlation:  0.1900 VWN1RPA + 0.8100 LYP
 Using SG-1 standard quadrature grid
 A restricted SCF calculation will be
 performed using DIIS
 SCF converges when DIIS error is below 1.0e-05
 ---------------------------------------
  Cycle       Energy         DIIS error
 ---------------------------------------
    1    -776.1274727107      4.56e-02  
    2    -771.8500400401      4.66e-03  
    3    -771.8250427077      4.99e-03  
    4    -772.1137488621      9.50e-04  
    5    -772.1228805384      3.88e-04  
    6    -772.1246878519      1.23e-04  
    7    -772.1248562716      4.07e-05  
    8    -772.1248730219      1.10e-05  
    9    -772.1248743330      2.04e-06  Convergence criterion met
 ---------------------------------------
 SCF time:   CPU 87.23s  wall 88.00s 
 SCF   energy in the final basis set =     -772.1248743330
 Total energy in the final basis set =     -772.1248743330
 
 --------------------------------------------------------------
 
                    Orbital Energies (a.u.)
 --------------------------------------------------------------
 
 Alpha MOs
 -- Occupied --
-19.1755 -19.1367 -10.2486 -10.2323 -10.2309 -10.2164 -10.1967 -10.1942
-10.1911 -10.1893 -10.1890 -10.1881 -10.1862 -10.1818 -10.1766 -10.1762
-10.1726 -10.1709  -1.0673  -1.0271  -0.8668  -0.8051  -0.7958  -0.7872
 -0.7697  -0.7380  -0.7259  -0.6898  -0.6372  -0.6338  -0.6141  -0.6078
 -0.5894  -0.5528  -0.5349  -0.5288  -0.4957  -0.4908  -0.4864  -0.4739
 -0.4613  -0.4542  -0.4453  -0.4353  -0.4274  -0.4244  -0.4191  -0.4141
 -0.3956  -0.3848  -0.3781  -0.3751  -0.3709  -0.3605  -0.3501  -0.3449
 -0.3422  -0.3283  -0.3165  -0.3147  -0.2960  -0.2792  -0.2719  -0.2399
 -0.2348  -0.2074
 -- Virtual --
 -0.0305  -0.0141   0.0245   0.0729   0.0871   0.0940   0.1088   0.1189
  0.1219   0.1260   0.1384   0.1432   0.1455   0.1495   0.1521   0.1638
  0.1702   0.1769   0.1814   0.1869   0.1914   0.1979   0.2045   0.2057
  0.2103   0.2159   0.2327   0.2410   0.2470   0.2581   0.2663   0.2761
  0.2938   0.3055   0.3062   0.3140   0.3249   0.3429   0.3573   0.3657
  0.3973   0.4381   0.4768   0.4967   0.5106   0.5124   0.5157   0.5285
  0.5378   0.5418   0.5503   0.5563   0.5567   0.5695   0.5712   0.5803
  0.5838   0.5911   0.5941   0.6052   0.6120   0.6178   0.6247   0.6321
  0.6417   0.6496   0.6571   0.6642   0.6765   0.6836   0.6928   0.7007
  0.7066   0.7153   0.7334   0.7499   0.7611   0.7764   0.7909   0.8115
  0.8250   0.8294   0.8393   0.8462   0.8544   0.8605   0.8660   0.8712
  0.8748   0.8848   0.8891   0.8956   0.8997   0.9115   0.9160   0.9324
  0.9400   0.9470   0.9571   0.9637   0.9679   0.9774   0.9820   0.9883
  1.0039   1.0159   1.0349   1.0465   1.0747   1.0758   1.1064   1.1209
  1.1302   1.1483   1.1609   1.1818   1.1893   1.1988   1.2250   1.2339
  1.2524   1.2711   1.2876   1.3067   1.3263   1.3468   1.3493   1.3715
  1.4016   1.4093   1.4168   1.4452   1.4539   1.4781   1.5025   1.5114
  1.5151   1.5314   1.5341   1.5552   1.6015   1.6339   1.6430   1.6548
  1.6651   1.6799   1.6891   1.7244   1.7475   1.7731   1.7793   1.7895
  1.8103   1.8241   1.8384   1.8407   1.8575   1.8817   1.8979   1.9288
  1.9357   1.9509   1.9632   1.9725   1.9757   1.9801   2.0005   2.0070
  2.0244   2.0360   2.0558   2.0614   2.0884   2.0972   2.1154   2.1213
  2.1489   2.1514   2.1672   2.1796   2.1928   2.2109   2.2155   2.2335
  2.2590   2.2831   2.2952   2.2978   2.3272   2.3343   2.3440   2.3715
  2.3812   2.3882   2.3933   2.4192   2.4290   2.4388   2.4689   2.4706
  2.5143   2.5368   2.5682   2.5897   2.6236   2.6425   2.6462   2.6684
  2.6922   2.6992   2.7124   2.7339   2.7438   2.7571   2.7851   2.8057
  2.8353   2.8629   2.9278   2.9356   2.9651   2.9794   3.0578   3.1122
  3.2795   3.4698   4.0134   4.0949   4.0974   4.1343   4.1487   4.1866
  4.2134   4.2336   4.2735   4.3000   4.3597   4.4020   4.4556   4.5239
  4.5516   4.5912   4.6297   4.8359
 --------------------------------------------------------------
 
          Ground-State Mulliken Net Atomic Charges

     Atom                 Charge (a.u.)
  ----------------------------------------
      1 C                    -0.357468
      2 C                    -0.112007
      3 C                     0.187730
      4 C                    -0.186806
      5 C                    -0.183161
      6 C                     0.308699
      7 O                    -0.526867
      8 C                    -0.054085
      9 C                     0.118274
     10 C                    -0.277570
     11 C                    -0.277990
     12 C                    -0.274563
     13 C                    -0.038479
     14 O                    -0.477835
     15 C                     0.126742
     16 C                    -0.148694
     17 C                    -0.328719
     18 C                    -0.273685
     19 H                     0.142563
     20 H                     0.139869
     21 H                     0.125309
     22 H                     0.130145
     23 H                     0.142113
     24 H                     0.156301
     25 H                     0.136471
     26 H                     0.130900
     27 H                     0.138925
     28 H                     0.135220
     29 H                     0.128889
     30 H                     0.165139
     31 H                     0.136902
     32 H                     0.128690
     33 H                     0.137627
     34 H                     0.135170
     35 H                     0.138648
     36 H                     0.155995
     37 H                     0.143378
     38 H                     0.128230
  ----------------------------------------
  Sum of atomic charges =     0.000000

 -----------------------------------------------------------------
                    Cartesian Multipole Moments
 -----------------------------------------------------------------
    Charge (ESU x 10^10)
                 0.0000
    Dipole Moment (Debye)
         X       0.0880      Y       0.5480      Z       0.4468
       Tot       0.7125
    Quadrupole Moments (Debye-Ang)
        XX    -105.3036     XY      -1.4673     YY     -98.4886
        XZ      -5.6170     YZ      -3.3571     ZZ    -111.7950
    Octopole Moments (Debye-Ang^2)
       XXX      -7.1165    XXY      -0.4309    XYY      -7.4726
       YYY       5.8612    XXZ      -4.0894    XYZ      -8.9835
       YYZ      -1.9907    XZZ      -3.6988    YZZ       3.1240
       ZZZ       1.5225
    Hexadecapole Moments (Debye-Ang^3)
      XXXX   -4933.2771   XXXY     -37.5100   XXYY   -1101.7063
      XYYY     -24.2317   YYYY   -1675.0103   XXXZ     -91.0662
      XXYZ     -27.7720   XYYZ      12.3041   YYYZ     -12.5222
      XXZZ    -983.5578   XYZZ      11.6481   YYZZ    -361.0963
      XZZZ      -4.5513   YZZZ       3.4505   ZZZZ    -488.5541
 -----------------------------------------------------------------
Archival summary:
1\1\nia0231.scinet.local\SP\ProcedureUnspecified\6-31G*\21620\rhickman\MonFeb710:10:242022MonFeb710:10:242022\0\\#,ProcedureUnspecified,6-31G*,\\0,1\O\C,1,1.36693\C,2,1.39652,1,115.627\H,3,1.07989,2,118.083,1,-2.63122,0\C,3,1.37586,2,121.516,1,177.043,0\H,5,1.07831,3,119.172,2,-179.923,0\C,5,1.39676,3,120.507,2,-1.28569,0\C,7,1.39136,5,117.551,3,2.81192,0\H,8,1.08187,7,119.059,5,177.516,0\C,8,1.39196,7,122.99,5,-0.302225,0\C,1,1.41256,2,119.555,3,-141.685,0\H,11,1.09516,1,110.746,2,11.46,0\H,11,1.09803,1,109.091,2,-107.698,0\C,7,1.45656,5,123.366,3,-177.86,0\H,14,1.08355,7,114.394,5,-179.435,0\C,14,1.32787,7,126.794,5,0.678548,0\H,16,1.07634,14,122.854,7,-0.0588007,0\H,16,1.07646,14,121.274,7,179.92,0\C,10,1.46729,8,117.431,7,172.488,0\H,19,1.08351,10,115.7,8,43.4865,0\C,19,1.32524,10,123.935,8,-130.955,0\H,21,1.07681,19,121.812,10,176.564,0\H,21,1.07771,19,121.637,10,-2.38559,0\C,11,1.54761,1,112.89,2,132.334,0\H,24,1.09857,11,104.883,1,165.628,0\O,24,1.4123,11,112.731,1,-82.7603,0\C,26,1.4145,24,114.806,11,77.9,0\H,27,1.09299,26,104.742,24,178.186,0\H,27,1.09746,26,110.629,24,-65.0928,0\C,27,1.52659,26,111.838,24,57.8101,0\H,30,1.09078,27,109.516,26,179.753,0\H,30,1.09234,27,109,26,61.0922,0\C,30,1.52572,27,109.042,26,-58.6488,0\H,33,1.08942,30,109.761,27,-64.6492,0\H,33,1.09211,30,110.428,27,175.968,0\C,33,1.52748,30,109.218,27,55.3662,0\H,36,1.09022,33,110.519,30,-173.146,0\H,36,1.09269,33,108.849,30,67.8439,0\\\@

 Total job time:  87.79s(wall), 87.54s(cpu) 
 Mon Feb  7 10:10:24 2022

        *************************************************************
        *                                                           *
        *  Thank you very much for using Q-Chem.  Have a nice day.  *
        *                                                           *
        *************************************************************


