34
 energy: -48.199071328701 gnorm: 0.000070703105 xtb: 6.4.1 (23d549d)
C         5.87721816240000    0.43946260800000   -0.17056332380000
C         5.00164520980000   -0.49212142430000    0.18767583340000
C         3.54902749450000   -0.40535188690000    0.10981469640000
C         2.78056301690000   -1.43101666630000    0.66512529030000
C         1.40300267610000   -1.37919726030000    0.61396593380000
C         0.73766220580000   -0.31212556240000    0.02182735770000
C        -0.73769432420000   -0.31223261510000   -0.02110731000000
C        -1.40287641890000   -1.37933533540000   -0.61337865100000
C        -2.78043022320000   -1.43143214240000   -0.66440359620000
C        -3.54901139330000   -0.40586067140000   -0.10909992680000
C        -5.00164498740000   -0.49252439550000   -0.18714777690000
C        -5.87675991190000    0.44201309710000    0.16439288710000
C        -2.88829630540000    0.65172173410000    0.50712144800000
C        -1.49927481770000    0.71654726360000    0.56293076250000
N        -0.88616942440000    1.80442304440000    1.14979624620000
C         1.49910262750000    0.71691689410000   -0.56193904860000
N         0.88581138890000    1.80484404820000   -1.14851142840000
C         2.88812682350000    0.65227062800000   -0.50616419810000
H         6.93731070650000    0.28021889930000   -0.07007952450000
H         5.58239781490000    1.39438316030000   -0.57076629160000
H         5.37133903250000   -1.42536373060000    0.59601358780000
H         3.26990347750000   -2.26847499150000    1.14071191830000
H         0.81639231490000   -2.17473440700000    1.05158180730000
H        -0.81613729340000   -2.17477212220000   -1.05100304140000
H        -3.26968279820000   -2.26895584690000   -1.13996153330000
H        -5.37159862960000   -1.42799551580000   -0.59015942610000
H        -5.58138602670000    1.39933746000000    0.55846690640000
H        -6.93691531720000    0.28284897840000    0.06442682070000
H        -3.45362263350000    1.44634633190000    0.97116481660000
H        -1.44112995030000    2.32845029180000    1.80594660580000
H         0.08037592030000    1.68679349410000    1.40630220790000
H        -0.08063983950000    1.68705307120000   -1.40527009880000
H         1.44081007510000    2.32937757630000   -1.80422109620000
H         3.45327063900000    1.44731923790000   -0.96969214980000
