25
 energy: -41.239836070521 gnorm: 0.000035220654 xtb: 6.4.1 (23d549d)
C        -4.75516064850000    0.06994778400000    0.36728880440000
C        -3.55394376990000    0.63662017570000    0.35739411940000
C        -2.28010955630000   -0.03024243970000    0.12578626860000
C        -2.15640301430000   -1.40359971340000   -0.10403708330000
C        -0.92491582240000   -1.98495648250000   -0.31980712820000
C         0.24895726920000   -1.22558079630000   -0.31925312280000
C         1.55979960370000   -1.82046946430000   -0.55827693630000
C         1.89509550530000   -3.06183932780000   -0.22792538290000
C         0.11615415470000    0.14353250030000   -0.09550103390000
S         1.55356773230000    1.21708565510000   -0.01082911310000
N         2.41853737910000    0.65211276990000    1.30303120370000
O         2.38342053160000    1.03427288490000   -1.16245947080000
O         1.11473143410000    2.53463015950000    0.33079547690000
C        -1.10764084940000    0.72960022340000    0.12854953230000
H        -5.64322383070000    0.65061681660000    0.54711414370000
H        -4.90839130090000   -0.98191573220000    0.19720285550000
H        -3.47229910450000    1.70177247670000    0.53222501850000
H        -3.03768806870000   -2.02564814740000   -0.11824453710000
H        -0.86209450580000   -3.04472734180000   -0.51482640900000
H         2.27621121610000   -1.16326995870000   -1.03211639410000
H         1.21277455300000   -3.73079085330000    0.27112211310000
H         2.87671434990000   -3.45175060650000   -0.43477819320000
H         2.76431244510000   -0.28763619360000    1.20267375140000
H         1.95464360420000    0.81294073610000    2.18047489010000
H        -1.13089307130000    1.79448951500000    0.30302146230000
