
Running Job 1 of 1 fragments/C086/conf-5/spe_input.inp
qchem fragments/C086/conf-5/spe_input.inp_117263.0 /gpfs/fs0/scratch/a/aspuru/rhickman/descriptor_computation/qchem117263/ 0
/scinet/niagara/software/commercial/qc52/exe/qcprog.exe_s fragments/C086/conf-5/spe_input.inp_117263.0 /gpfs/fs0/scratch/a/aspuru/rhickman/descriptor_computation/qchem117263/
                  Welcome to Q-Chem
     A Quantum Leap Into The Future Of Chemistry


 Q-Chem 5.2, Q-Chem, Inc., Pleasanton, CA (2019)

 License issued to: SRG Alan Aspuru-Guzik, University of Toronto

 Yihan Shao,  Zhengting Gan,  E. Epifanovsky,  A. T. B. Gilbert,  M. Wormit,  
 J. Kussmann,  A. W. Lange,  A. Behn,  Jia Deng,  Xintian Feng,  D. Ghosh,  
 M. Goldey,  P. R. Horn,  L. D. Jacobson,  I. Kaliman,  T. Kus,  A. Landau,  
 Jie Liu,  E. I. Proynov,  R. M. Richard,  R. P. Steele,  E. J. Sundstrom,  
 H. L. Woodcock III,  P. M. Zimmerman,  D. Zuev,  B. Albrecht,  E. Alguire,  
 S. A. Baeppler,  D. Barton,  Z. Benda,  Y. A. Bernard,  E. J. Berquist,  
 K. B. Bravaya,  H. Burton,  D. Casanova,  Chun-Min Chang,  Yunqing Chen,  
 A. Chien,  K. D. Closser,  M. P. Coons,  S. Coriani,  S. Dasgupta,  
 A. L. Dempwolff,  M. Diedenhofen,  Hainam Do,  R. G. Edgar,  Po-Tung Fang,  
 S. Faraji,  S. Fatehi,  Qingguo Feng,  K. D. Fenk,  J. Fosso-Tande,  
 J. Gayvert,  Qinghui Ge,  A. Ghysels,  G. Gidofalvi,  J. Gomes,  
 J. Gonthier,  A. Gunina,  D. Hait,  M. W. D. Hanson-Heine,  
 P. H. P. Harbach,  A. W. Hauser,  M. F. Herbst,  J. E. Herr,  
 E. G. Hohenstein,  Z. C. Holden,  Kerwin Hui,  B. C. Huynh,  T.-C. Jagau,  
 Hyunjun Ji,  B. Kaduk,  K. Khistyaev,  Jaehoon Kim,  P. Klunzinger,  K. Koh,  
 D. Kosenkov,  L. Koulias,  T. Kowalczyk,  C. M. Krauter,  A. Kunitsa,  
 Ka Un Lao,  A. Laurent,  K. V. Lawler,  Joonho Lee,  D. Lefrancois,  
 S. Lehtola,  D. S. Levine,  Yi-Pei Li,  You-Sheng Lin,  Fenglai Liu,  
 E. Livshits,  A. Luenser,  P. Manohar,  E. Mansoor,  S. F. Manzer,  
 Shan-Ping Mao,  Yuezhi Mao,  N. Mardirossian,  A. V. Marenich,  
 T. Markovich,  L. A. Martinez-Martinez,  S. A. Maurer,  N. J. Mayhall,  
 S. C. McKenzie,  J.-M. Mewes,  P. Morgante,  A. F. Morrison,  
 J. W. Mullinax,  K. Nanda,  T. S. Nguyen-Beck,  R. Olivares-Amaya,  
 J. A. Parkhill,  Zheng Pei,  T. M. Perrine,  F. Plasser,  P. Pokhilko,  
 S. Prager,  A. Prociuk,  E. Ramos,  D. R. Rehn,  F. Rob,  M. Scheurer,  
 M. Schneider,  N. Sergueev,  S. M. Sharada,  S. Sharma,  D. W. Small,  
 T. Stauch,  T. Stein,  Yu-Chuan Su,  A. J. W. Thom,  A. Tkatchenko,  
 T. Tsuchimochi,  N. M. Tubman,  L. Vogt,  M. L. Vidal,  O. Vydrov,  
 M. A. Watson,  J. Wenzel,  M. de Wergifosse,  T. A. Wesolowski,  A. White,  
 J. Witte,  A. Yamada,  Jun Yang,  K. Yao,  S. Yeganeh,  S. R. Yost,  
 Zhi-Qiang You,  A. Zech,  Igor Ying Zhang,  Xing Zhang,  Yan Zhao,  
 Ying Zhu,  B. R. Brooks,  G. K. L. Chan,  C. J. Cramer,  M. S. Gordon,  
 W. J. Hehre,  A. Klamt,  M. W. Schmidt,  C. D. Sherrill,  D. G. Truhlar,  
 A. Aspuru-Guzik,  R. Baer,  A. T. Bell,  N. A. Besley,  Jeng-Da Chai,  
 A. E. DePrince, III,  R. A. DiStasio Jr.,  A. Dreuw,  B. D. Dunietz,  
 T. R. Furlani,  Chao-Ping Hsu,  Yousung Jung,  Jing Kong,  D. S. Lambrecht,  
 WanZhen Liang,  C. Ochsenfeld,  V. A. Rassolov,  L. V. Slipchenko,  
 J. E. Subotnik,  T. Van Voorhis,  J. M. Herbert,  A. I. Krylov,  
 P. M. W. Gill,  M. Head-Gordon

 Contributors to earlier versions of Q-Chem not listed above: 
 R. D. Adamson,  B. Austin,  J. Baker,  G. J. O. Beran,  K. Brandhorst,  
 S. T. Brown,  E. F. C. Byrd,  A. K. Chakraborty,  C.-L. Cheng,  
 Siu Hung Chien,  D. M. Chipman,  D. L. Crittenden,  H. Dachsel,  
 R. J. Doerksen,  A. D. Dutoi,  L. Fusti-Molnar,  W. A. Goddard III,  
 A. Golubeva-Zadorozhnaya,  S. R. Gwaltney,  G. Hawkins,  A. Heyden,  
 S. Hirata,  G. Kedziora,  F. J. Keil,  C. Kelley,  Jihan Kim,  R. A. King,  
 R. Z. Khaliullin,  P. P. Korambath,  W. Kurlancheek,  A. M. Lee,  M. S. Lee,  
 S. V. Levchenko,  Ching Yeh Lin,  D. Liotard,  R. C. Lochan,  I. Lotan,  
 P. E. Maslen,  N. Nair,  D. P. O'Neill,  D. Neuhauser,  E. Neuscamman,  
 C. M. Oana,  R. Olson,  B. Peters,  R. Peverati,  P. A. Pieniazek,  
 Y. M. Rhee,  J. Ritchie,  M. A. Rohrdanz,  E. Rosta,  N. J. Russ,  
 H. F. Schaefer III,  N. E. Schultz,  N. Shenvi,  A. C. Simmonett,  A. Sodt,  
 D. Stuck,  K. S. Thanthiriwatte,  V. Vanovschi,  Tao Wang,  A. Warshel,  
 C. F. Williams,  Q. Wu,  X. Xu,  W. Zhang

 Please cite Q-Chem as follows:
 Y. Shao et al., Mol. Phys. 113, 184-215 (2015)
 DOI: 10.1080/00268976.2014.952696

 Q-Chem 5.2.1 for Intel X86 EM64T Linux

 Parts of Q-Chem use Armadillo 8.300.2 (Tropical Shenanigans).
 http://arma.sourceforge.net/

 Q-Chem begins on Mon Feb  7 15:51:11 2022  

Host: 
0

     Scratch files written to /gpfs/fs0/scratch/a/aspuru/rhickman/descriptor_computation/qchem117263//
 Jul1719 |scratch|qcdevops|jenkins|workspace|build_RNUM -1
Processing $rem in /scinet/niagara/software/commercial/qc52/config/preferences:
	 MEM_TOTAL  4000 
NAlpha2: 120
NElect   120
Mult     1

Checking the input file for inconsistencies... 	...done.

--------------------------------------------------------------
User input:
--------------------------------------------------------------
$molecule
0 1
C        -1.50280913970000   -3.47871232080000    0.52878342660000
C        -2.14959216110000   -2.32531740460000    0.68004755740000
C        -1.67312210480000   -1.04287972940000    0.23647092210000
C        -0.53867675260000   -0.71530702080000   -0.46042079290000
C        -0.37702760990000    0.66143363440000   -0.70815112370000
C         0.82250669660000    1.18292410820000   -1.43481039720000
C         1.93699328340000    1.60443360970000   -0.46441666630000
C         2.48391657580000    0.44980111160000    0.37564131660000
C         3.32519543610000   -0.53876473000000   -0.42962727690000
C         3.84113019120000   -1.70395598730000    0.41663036710000
C         2.75249907970000   -2.71247642030000    0.76659841700000
C        -1.41522535610000    1.41327567180000   -0.19532934340000
C        -1.72207936650000    2.81999280580000   -0.21072377930000
C        -0.94149682290000    3.84112735200000   -0.55780060730000
S        -2.59034064520000    0.38699558430000    0.58602660220000
H        -1.91900236290000   -4.40368600510000    0.88648373480000
H        -0.54199479360000   -3.53923927140000    0.04816516400000
H        -3.11113202260000   -2.30866456980000    1.17689593790000
H         0.16776637890000   -1.45118157120000   -0.80023585480000
H         0.53917584610000    2.03462011210000   -2.05533117540000
H         1.19749740940000    0.40180666180000   -2.09804385400000
H         1.54212012980000    2.36517624290000    0.21256557830000
H         2.75233682900000    2.05295687380000   -1.03752129720000
H         1.64887103460000   -0.06778500100000    0.84938042580000
H         3.10712910610000    0.86481157530000    1.17194991840000
H         4.17758156770000   -0.00375443280000   -0.85655444280000
H         2.74194681130000   -0.94115624000000   -1.25983214790000
H         4.28469106060000   -1.31350466520000    1.33528122430000
H         4.62966253700000   -2.21987774320000   -0.13681117750000
H         1.95457953070000   -2.24834960520000    1.34092043000000
H         3.16606306900000   -3.52597245770000    1.35849186350000
H         2.32488995160000   -3.13693895940000   -0.14005126590000
H        -2.72989556820000    3.03819007280000    0.12425078470000
H         0.07914190830000    3.73204664200000   -0.87247731830000
H        -1.31997752140000    4.84851016120000   -0.52413027530000
$end

$rem
BASIS = 6-31G*
GUI = 2
METHOD = B3LYP
PRINT_ORBITALS false
MOLDEN_FORMAT false
--------------------------------------------------------------
 ----------------------------------------------------------------
             Standard Nuclear Orientation (Angstroms)
    I     Atom           X                Y                Z
 ----------------------------------------------------------------
    1      C       0.4632702722    -3.8036377487    -0.3377942441
    2      C      -0.6837058389    -3.2201921163     0.0021556659
    3      C      -0.9682093739    -1.8157879962    -0.1208774306
    4      C      -0.2045163664    -0.8024747179    -0.6403939263
    5      C      -0.7976822437     0.4731187412    -0.5776949397
    6      C      -0.0812858491     1.6869176480    -1.0800264898
    7      C       0.6898923093     2.3980361066     0.0429202546
    8      C       1.7962625501     1.5421313703     0.6604724230
    9      C       2.9937595639     1.3405802736    -0.2662681604
   10      C       4.0795443658     0.4585098815     0.3526296706
   11      C       3.6955781418    -1.0164760062     0.3938045007
   12      C      -2.0519468829     0.4418510662    -0.0015441478
   13      C      -3.0493569672     1.4477193896     0.2566253841
   14      C      -2.9340929979     2.7727037227     0.1964761718
   15      S      -2.4812085413    -1.1882378026     0.4492424786
   16      H       0.6083927839    -4.8625699879    -0.2180253180
   17      H       1.2916221754    -3.2487796321    -0.7425005927
   18      H      -1.4890190630    -3.8152521930     0.4133352515
   19      H       0.7666208925    -0.9684269035    -1.0709747256
   20      H      -0.7951833523     2.3807457571    -1.5268613587
   21      H       0.6170742422     1.3833475386    -1.8615503151
   22      H      -0.0141332568     2.6714226619     0.8319493507
   23      H       1.1241652866     3.3182887213    -0.3557641321
   24      H       1.3769419511     0.5766461924     0.9461886983
   25      H       2.1449449395     2.0316425562     1.5734534317
   26      H       3.4207976279     2.3190759466    -0.5013206017
   27      H       2.6710034624     0.8897278802    -1.2064269937
   28      H       4.2935344522     0.8074533566     1.3653312906
   29      H       4.9961290921     0.5640964258    -0.2330152587
   30      H       2.7990053280    -1.1743281957     0.9880897499
   31      H       4.4991033325    -1.6048684436     0.8311721215
   32      H       3.5134801381    -1.3878899537    -0.6131332619
   33      H      -4.0065880622     1.0309504509     0.5490698828
   34      H      -2.0221029153     3.2817305232    -0.0520982819
   35      H      -3.7815164924     3.4007944536     0.4122930142
 ----------------------------------------------------------------
 Molecular Point Group                 C1    NOp =  1
 Largest Abelian Subgroup              C1    NOp =  1
 Nuclear Repulsion Energy =        1091.33686767 hartrees
 There are       60 alpha and       60 beta electrons
 Requested basis set is 6-31G(d)
 There are 101 shells and 269 basis functions

 Total QAlloc Memory Limit   4000 MB
 Mega-Array Size       188 MB
 MEM_STATIC part       192 MB
 A cutoff of  1.0D-08 yielded   3250 shell pairs
 There are     24458 function pairs
 Smallest overlap matrix eigenvalue = 6.37E-04

 Scale SEOQF with 1.000000e-01/1.000000e-01/1.000000e-01

 Standard Electronic Orientation quadrupole field applied
 Nucleus-field energy     =     0.0000000518 hartrees
 Guess from superposition of atomic densities
 Warning:  Energy on first SCF cycle will be non-variational
 SAD guess density has 120.000000 electrons

 -----------------------------------------------------------------------
  General SCF calculation program by
  Eric Jon Sundstrom, Paul Horn, Yuezhi Mao, Dmitri Zuev, Alec White,
  David Stuck, Shaama M.S., Shane Yost, Joonho Lee, David Small,
  Daniel Levine, Susi Lehtola, Hugh Burton, Evgeny Epifanovsky,
  Bang C. Huynh
 -----------------------------------------------------------------------
 Exchange:     0.2000 Hartree-Fock + 0.0800 Slater + 0.7200 B88
 Correlation:  0.1900 VWN1RPA + 0.8100 LYP
 Using SG-1 standard quadrature grid
 A restricted SCF calculation will be
 performed using DIIS
 SCF converges when DIIS error is below 1.0e-05
 ---------------------------------------
  Cycle       Energy         DIIS error
 ---------------------------------------
    1    -946.8394866214      4.82e-02  
    2    -943.3643380929      5.61e-03  
    3    -943.2077184393      6.85e-03  
    4    -943.6594467863      1.39e-03  
    5    -943.6783405374      4.47e-04  
    6    -943.6801620609      1.18e-04  
    7    -943.6802930244      2.54e-05  
    8    -943.6802983947      1.01e-05  
    9    -943.6802993061      3.50e-06  Convergence criterion met
 ---------------------------------------
 SCF time:   CPU 62.55s  wall 62.00s 
 SCF   energy in the final basis set =     -943.6802993061
 Total energy in the final basis set =     -943.6802993061
 
 --------------------------------------------------------------
 
                    Orbital Energies (a.u.)
 --------------------------------------------------------------
 
 Alpha MOs
 -- Occupied --
-88.9014 -10.2164 -10.2143 -10.1980 -10.1975 -10.1928 -10.1849 -10.1842
-10.1818 -10.1793 -10.1786 -10.1753 -10.1737 -10.1713 -10.1688  -7.9634
 -5.9273  -5.9237  -5.9204  -0.8895  -0.8157  -0.8032  -0.7811  -0.7684
 -0.7382  -0.7078  -0.6906  -0.6514  -0.6132  -0.6016  -0.5913  -0.5633
 -0.5359  -0.5089  -0.4870  -0.4717  -0.4668  -0.4531  -0.4443  -0.4389
 -0.4316  -0.4185  -0.4018  -0.3968  -0.3892  -0.3788  -0.3697  -0.3633
 -0.3624  -0.3496  -0.3407  -0.3390  -0.3296  -0.3218  -0.3158  -0.3138
 -0.3057  -0.2693  -0.2450  -0.1965
 -- Virtual --
 -0.0482   0.0062   0.0197   0.0696   0.0802   0.0956   0.1011   0.1098
  0.1220   0.1241   0.1285   0.1368   0.1391   0.1491   0.1601   0.1681
  0.1715   0.1791   0.1846   0.1923   0.1971   0.2051   0.2128   0.2140
  0.2271   0.2396   0.2449   0.2579   0.2617   0.2699   0.2706   0.2818
  0.2959   0.3014   0.3166   0.3256   0.3476   0.3655   0.3742   0.4152
  0.4399   0.4594   0.4711   0.4868   0.4989   0.5189   0.5213   0.5372
  0.5383   0.5446   0.5496   0.5546   0.5699   0.5857   0.5898   0.6062
  0.6077   0.6104   0.6259   0.6422   0.6493   0.6678   0.6725   0.6764
  0.6812   0.6859   0.7003   0.7024   0.7126   0.7273   0.7459   0.7898
  0.7915   0.8002   0.8105   0.8267   0.8343   0.8426   0.8553   0.8652
  0.8697   0.8808   0.8858   0.8874   0.8893   0.9013   0.9043   0.9186
  0.9238   0.9356   0.9400   0.9523   0.9704   0.9731   0.9785   0.9847
  0.9914   1.0017   1.0069   1.0219   1.0396   1.0470   1.0567   1.0629
  1.0682   1.0806   1.1076   1.1141   1.1172   1.1722   1.1839   1.2326
  1.2622   1.2781   1.2892   1.3066   1.3388   1.3728   1.3781   1.3908
  1.4489   1.4644   1.4733   1.4822   1.4898   1.5016   1.5583   1.5716
  1.6080   1.6174   1.6254   1.6606   1.7023   1.7065   1.7329   1.7494
  1.7552   1.8005   1.8364   1.8436   1.8570   1.8704   1.8862   1.8997
  1.9346   1.9396   1.9730   1.9884   1.9927   2.0066   2.0223   2.0306
  2.0399   2.0563   2.0840   2.1104   2.1196   2.1319   2.1547   2.1793
  2.1995   2.2148   2.2276   2.2381   2.2438   2.2697   2.3067   2.3144
  2.3247   2.3445   2.3653   2.4092   2.4179   2.4271   2.4747   2.4785
  2.5030   2.5249   2.5354   2.5608   2.5955   2.6087   2.6296   2.6396
  2.6842   2.7187   2.7493   2.7787   2.8106   2.8606   2.8842   3.0815
  3.1076   3.2368   3.9744   4.0834   4.1167   4.1293   4.1676   4.1887
  4.2248   4.2432   4.3231   4.3844   4.4556   4.5071   4.5434   4.5737
  4.6745
 --------------------------------------------------------------
 
          Ground-State Mulliken Net Atomic Charges

     Atom                 Charge (a.u.)
  ----------------------------------------
      1 C                    -0.345228
      2 C                    -0.088830
      3 C                    -0.130945
      4 C                    -0.167067
      5 C                     0.181124
      6 C                    -0.361048
      7 C                    -0.258779
      8 C                    -0.267885
      9 C                    -0.253674
     10 C                    -0.249752
     11 C                    -0.452208
     12 C                    -0.196457
     13 C                    -0.089836
     14 C                    -0.355829
     15 S                     0.225707
     16 H                     0.146507
     17 H                     0.146353
     18 H                     0.136878
     19 H                     0.140462
     20 H                     0.150286
     21 H                     0.146859
     22 H                     0.145073
     23 H                     0.129356
     24 H                     0.152648
     25 H                     0.130005
     26 H                     0.128017
     27 H                     0.126115
     28 H                     0.132034
     29 H                     0.129554
     30 H                     0.157341
     31 H                     0.144014
     32 H                     0.137819
     33 H                     0.135499
     34 H                     0.152215
     35 H                     0.143668
  ----------------------------------------
  Sum of atomic charges =     0.000000

 -----------------------------------------------------------------
                    Cartesian Multipole Moments
 -----------------------------------------------------------------
    Charge (ESU x 10^10)
                 0.0000
    Dipole Moment (Debye)
         X       0.8093      Y       0.3663      Z      -0.2056
       Tot       0.9118
    Quadrupole Moments (Debye-Ang)
        XX     -97.5198     XY      -1.3712     YY     -94.3363
        XZ      -2.4401     YZ      -0.6090     ZZ    -102.5666
    Octopole Moments (Debye-Ang^2)
       XXX      -9.0780    XXY       5.1585    XYY      -4.7595
       YYY     -12.3853    XXZ       6.8276    XYZ       2.6556
       YYZ       3.3107    XZZ       7.6910    YZZ       2.7048
       ZZZ       0.6423
    Hexadecapole Moments (Debye-Ang^3)
      XXXX   -3261.0548   XXXY     -35.8262   XXYY    -920.2267
      XYYY      -5.1597   YYYY   -2214.5784   XXXZ     -32.4553
      XXYZ       8.5463   XYYZ     -16.7780   YYYZ     -19.4707
      XXZZ    -614.9231   XYZZ       5.6190   YYZZ    -466.0005
      XZZZ       0.9709   YZZZ      -3.7382   ZZZZ    -301.1494
 -----------------------------------------------------------------
Archival summary:
1\1\nia1977.scinet.local\SP\ProcedureUnspecified\6-31G*\11420\rhickman\MonFeb715:52:142022MonFeb715:52:142022\0\\#,ProcedureUnspecified,6-31G*,\\0,1\S\C,1,1.73437\C,2,1.3711,1,110.062\H,3,1.0752,2,122.735,1,-178.666,0\C,3,1.40816,2,114.707,1,0.749437,0\C,5,1.38062,3,112.38,2,-0.292989,0\C,2,1.4382,1,119.853,3,179.748,0\H,7,1.08245,2,114.97,1,3.07768,0\C,7,1.33099,2,125.217,1,-176.539,0\H,9,1.07552,7,121.294,2,179.964,0\H,9,1.07602,7,122.237,2,0.087461,0\C,6,1.43988,5,133.497,3,-178.398,0\H,12,1.08421,6,113.042,5,168.415,0\C,12,1.33135,6,128.841,5,-12.448,0\H,14,1.0736,12,123.771,6,-1.084,0\H,14,1.07666,12,120.224,6,179.508,0\C,5,1.49628,3,121.212,2,178.854,0\H,17,1.09117,5,108.735,3,27.2649,0\H,17,1.0912,5,109.879,3,144.788,0\C,17,1.53669,5,111.737,3,-93.4945,0\H,20,1.09223,17,108.678,5,-57.9709,0\H,20,1.09289,17,108.814,5,-175.336,0\C,20,1.52905,17,113.529,5,62.6641,0\H,23,1.0907,20,108.852,17,-51.5,0\H,23,1.09304,20,108.511,17,-168.174,0\C,23,1.52757,20,113.332,17,71.3591,0\H,26,1.09148,23,110.197,20,-57.157,0\H,26,1.09319,23,108.577,20,60.2883,0\C,26,1.52971,23,112.771,20,-178.788,0\H,29,1.0923,26,109.266,23,-48.3247,0\H,29,1.09282,26,108.832,23,-165.509,0\C,29,1.5247,26,112.955,23,73.7834,0\H,32,1.08717,29,111.279,26,-60.539,0\H,32,1.08773,29,110.373,26,179.428,0\H,32,1.08859,29,110.317,26,60.009,0\\\@

 Total job time:  63.11s(wall), 62.79s(cpu) 
 Mon Feb  7 15:52:14 2022

        *************************************************************
        *                                                           *
        *  Thank you very much for using Q-Chem.  Have a nice day.  *
        *                                                           *
        *************************************************************


