
Running Job 1 of 1 fragments/A018/conf-0/spe_input.inp
qchem fragments/A018/conf-0/spe_input.inp_317871.0 /gpfs/fs0/scratch/a/aspuru/rhickman/descriptor_computation/qchem317871/ 0
/scinet/niagara/software/commercial/qc52/exe/qcprog.exe_s fragments/A018/conf-0/spe_input.inp_317871.0 /gpfs/fs0/scratch/a/aspuru/rhickman/descriptor_computation/qchem317871/
                  Welcome to Q-Chem
     A Quantum Leap Into The Future Of Chemistry


 Q-Chem 5.2, Q-Chem, Inc., Pleasanton, CA (2019)

 License issued to: SRG Alan Aspuru-Guzik, University of Toronto

 Yihan Shao,  Zhengting Gan,  E. Epifanovsky,  A. T. B. Gilbert,  M. Wormit,  
 J. Kussmann,  A. W. Lange,  A. Behn,  Jia Deng,  Xintian Feng,  D. Ghosh,  
 M. Goldey,  P. R. Horn,  L. D. Jacobson,  I. Kaliman,  T. Kus,  A. Landau,  
 Jie Liu,  E. I. Proynov,  R. M. Richard,  R. P. Steele,  E. J. Sundstrom,  
 H. L. Woodcock III,  P. M. Zimmerman,  D. Zuev,  B. Albrecht,  E. Alguire,  
 S. A. Baeppler,  D. Barton,  Z. Benda,  Y. A. Bernard,  E. J. Berquist,  
 K. B. Bravaya,  H. Burton,  D. Casanova,  Chun-Min Chang,  Yunqing Chen,  
 A. Chien,  K. D. Closser,  M. P. Coons,  S. Coriani,  S. Dasgupta,  
 A. L. Dempwolff,  M. Diedenhofen,  Hainam Do,  R. G. Edgar,  Po-Tung Fang,  
 S. Faraji,  S. Fatehi,  Qingguo Feng,  K. D. Fenk,  J. Fosso-Tande,  
 J. Gayvert,  Qinghui Ge,  A. Ghysels,  G. Gidofalvi,  J. Gomes,  
 J. Gonthier,  A. Gunina,  D. Hait,  M. W. D. Hanson-Heine,  
 P. H. P. Harbach,  A. W. Hauser,  M. F. Herbst,  J. E. Herr,  
 E. G. Hohenstein,  Z. C. Holden,  Kerwin Hui,  B. C. Huynh,  T.-C. Jagau,  
 Hyunjun Ji,  B. Kaduk,  K. Khistyaev,  Jaehoon Kim,  P. Klunzinger,  K. Koh,  
 D. Kosenkov,  L. Koulias,  T. Kowalczyk,  C. M. Krauter,  A. Kunitsa,  
 Ka Un Lao,  A. Laurent,  K. V. Lawler,  Joonho Lee,  D. Lefrancois,  
 S. Lehtola,  D. S. Levine,  Yi-Pei Li,  You-Sheng Lin,  Fenglai Liu,  
 E. Livshits,  A. Luenser,  P. Manohar,  E. Mansoor,  S. F. Manzer,  
 Shan-Ping Mao,  Yuezhi Mao,  N. Mardirossian,  A. V. Marenich,  
 T. Markovich,  L. A. Martinez-Martinez,  S. A. Maurer,  N. J. Mayhall,  
 S. C. McKenzie,  J.-M. Mewes,  P. Morgante,  A. F. Morrison,  
 J. W. Mullinax,  K. Nanda,  T. S. Nguyen-Beck,  R. Olivares-Amaya,  
 J. A. Parkhill,  Zheng Pei,  T. M. Perrine,  F. Plasser,  P. Pokhilko,  
 S. Prager,  A. Prociuk,  E. Ramos,  D. R. Rehn,  F. Rob,  M. Scheurer,  
 M. Schneider,  N. Sergueev,  S. M. Sharada,  S. Sharma,  D. W. Small,  
 T. Stauch,  T. Stein,  Yu-Chuan Su,  A. J. W. Thom,  A. Tkatchenko,  
 T. Tsuchimochi,  N. M. Tubman,  L. Vogt,  M. L. Vidal,  O. Vydrov,  
 M. A. Watson,  J. Wenzel,  M. de Wergifosse,  T. A. Wesolowski,  A. White,  
 J. Witte,  A. Yamada,  Jun Yang,  K. Yao,  S. Yeganeh,  S. R. Yost,  
 Zhi-Qiang You,  A. Zech,  Igor Ying Zhang,  Xing Zhang,  Yan Zhao,  
 Ying Zhu,  B. R. Brooks,  G. K. L. Chan,  C. J. Cramer,  M. S. Gordon,  
 W. J. Hehre,  A. Klamt,  M. W. Schmidt,  C. D. Sherrill,  D. G. Truhlar,  
 A. Aspuru-Guzik,  R. Baer,  A. T. Bell,  N. A. Besley,  Jeng-Da Chai,  
 A. E. DePrince, III,  R. A. DiStasio Jr.,  A. Dreuw,  B. D. Dunietz,  
 T. R. Furlani,  Chao-Ping Hsu,  Yousung Jung,  Jing Kong,  D. S. Lambrecht,  
 WanZhen Liang,  C. Ochsenfeld,  V. A. Rassolov,  L. V. Slipchenko,  
 J. E. Subotnik,  T. Van Voorhis,  J. M. Herbert,  A. I. Krylov,  
 P. M. W. Gill,  M. Head-Gordon

 Contributors to earlier versions of Q-Chem not listed above: 
 R. D. Adamson,  B. Austin,  J. Baker,  G. J. O. Beran,  K. Brandhorst,  
 S. T. Brown,  E. F. C. Byrd,  A. K. Chakraborty,  C.-L. Cheng,  
 Siu Hung Chien,  D. M. Chipman,  D. L. Crittenden,  H. Dachsel,  
 R. J. Doerksen,  A. D. Dutoi,  L. Fusti-Molnar,  W. A. Goddard III,  
 A. Golubeva-Zadorozhnaya,  S. R. Gwaltney,  G. Hawkins,  A. Heyden,  
 S. Hirata,  G. Kedziora,  F. J. Keil,  C. Kelley,  Jihan Kim,  R. A. King,  
 R. Z. Khaliullin,  P. P. Korambath,  W. Kurlancheek,  A. M. Lee,  M. S. Lee,  
 S. V. Levchenko,  Ching Yeh Lin,  D. Liotard,  R. C. Lochan,  I. Lotan,  
 P. E. Maslen,  N. Nair,  D. P. O'Neill,  D. Neuhauser,  E. Neuscamman,  
 C. M. Oana,  R. Olson,  B. Peters,  R. Peverati,  P. A. Pieniazek,  
 Y. M. Rhee,  J. Ritchie,  M. A. Rohrdanz,  E. Rosta,  N. J. Russ,  
 H. F. Schaefer III,  N. E. Schultz,  N. Shenvi,  A. C. Simmonett,  A. Sodt,  
 D. Stuck,  K. S. Thanthiriwatte,  V. Vanovschi,  Tao Wang,  A. Warshel,  
 C. F. Williams,  Q. Wu,  X. Xu,  W. Zhang

 Please cite Q-Chem as follows:
 Y. Shao et al., Mol. Phys. 113, 184-215 (2015)
 DOI: 10.1080/00268976.2014.952696

 Q-Chem 5.2.1 for Intel X86 EM64T Linux

 Parts of Q-Chem use Armadillo 8.300.2 (Tropical Shenanigans).
 http://arma.sourceforge.net/

 Q-Chem begins on Tue Feb  8 14:18:11 2022  

Host: 
0

     Scratch files written to /gpfs/fs0/scratch/a/aspuru/rhickman/descriptor_computation/qchem317871//
 Jul1719 |scratch|qcdevops|jenkins|workspace|build_RNUM -1
Processing $rem in /scinet/niagara/software/commercial/qc52/config/preferences:
	 MEM_TOTAL  4000 
NAlpha2: 176
NElect   176
Mult     1

Checking the input file for inconsistencies... 	...done.

--------------------------------------------------------------
User input:
--------------------------------------------------------------
$molecule
0 1
C         4.65124740060000   -4.38727550990000   -0.16471918250000
C         3.67978754950000   -3.24791746430000   -0.10766112010000
C         2.47572324830000   -3.28932422220000   -0.79819034410000
C         1.58943770540000   -2.23052356180000   -0.75380704680000
C         1.88578217080000   -1.09707638290000   -0.00062921230000
N         0.99329363150000   -0.01560775810000    0.04978887510000
C        -0.37612218790000   -0.23413913240000    0.11761037040000
C        -0.89123823810000   -1.35441113600000    0.77721320010000
C        -2.24937263880000   -1.56407605980000    0.84053785270000
C        -3.15301632340000   -0.67084735420000    0.25609436620000
C        -4.57064387210000   -0.95514398060000    0.36641132500000
C        -5.59532637440000   -0.24906593530000   -0.09066196180000
F        -5.56908257090000    0.89692864210000   -0.76538750490000
F        -6.86734526970000   -0.61842256350000    0.07773255390000
C        -2.63349790690000    0.44754837230000   -0.40241832060000
C        -1.27526951500000    0.66042713690000   -0.47131432430000
C         1.50581490680000    1.29065389490000    0.02832915300000
C         2.59421694890000    1.60854847930000   -0.78022681050000
C         3.10562164780000    2.89174587250000   -0.78786257950000
C         2.54821135550000    3.89205760690000   -0.00205112270000
C         3.08616687310000    5.29024449960000   -0.02561207200000
C         1.46076880820000    3.56773576560000    0.80204715920000
C         0.94611735780000    2.28768785060000    0.82574483750000
C         3.09258223330000   -1.04879043880000    0.69551142630000
C         3.97307053530000   -2.10931671100000    0.63557165650000
H         4.20587746760000   -5.25509888540000   -0.64440302200000
H         4.97334952060000   -4.66672616970000    0.83709702070000
H         5.53766356510000   -4.09904003730000   -0.73003289190000
H         2.22827521790000   -4.15992201230000   -1.38865900460000
H         0.66223530790000   -2.27514805580000   -1.30630594820000
H        -0.21396475400000   -2.05227653780000    1.24669959400000
H        -2.62573442910000   -2.43237561220000    1.36174628110000
H        -4.84037990460000   -1.86054971290000    0.89134766840000
H        -3.29410009960000    1.15531078570000   -0.87549462610000
H        -0.89428588980000    1.52456028090000   -0.99489996830000
H         3.03604405800000    0.84364129380000   -1.40194988520000
H         3.94983701200000    3.11979244080000   -1.42272299100000
H         4.07553031210000    5.31923072530000   -0.47518997400000
H         3.14465694410000    5.69746103280000    0.98200096400000
H         2.42759385180000    5.93562388950000   -0.60772172070000
H         1.01667055390000    4.32923574560000    1.42706487760000
H         0.10907646650000    2.04986765770000    1.46583572760000
H         3.33178562650000   -0.17490913270000    1.28367789530000
H         4.90354700250000   -2.05805057930000    1.18274629370000
$end

$rem
BASIS = 6-31G*
GUI = 2
METHOD = B3LYP
PRINT_ORBITALS false
MOLDEN_FORMAT false
--------------------------------------------------------------
 ----------------------------------------------------------------
             Standard Nuclear Orientation (Angstroms)
    I     Atom           X                Y                Z
 ----------------------------------------------------------------
    1      C       4.5376847045    -4.3788849045    -0.1488466805
    2      C       3.5634176379    -3.2417073956    -0.0963336620
    3      C       2.3617705571    -3.2866712008    -0.7908396156
    4      C       1.4729050732    -2.2298686181    -0.7506247953
    5      C       1.7641148426    -1.0948914130     0.0022516980
    6      N       0.8689739993    -0.0154284398     0.0484547595
    7      C      -0.5001542525    -0.2370418170     0.1119429048
    8      C      -1.0148941704    -1.3577540338     0.7710914041
    9      C      -2.3727464625    -1.5704800386     0.8301104000
   10      C      -3.2764832667    -0.6799986500     0.2416324451
   11      C      -4.6938136529    -0.9674403243     0.3475292352
   12      C      -5.7185836626    -0.2642444586    -0.1137715643
   13      F      -5.6927205686     0.8810453398    -0.7897073935
   14      F      -6.9903051300    -0.6363443813     0.0507862026
   15      C      -2.7573403471     0.4388486827    -0.4164090582
   16      C      -1.3993828138     0.6547824464    -0.4810027082
   17      C       1.3785542676     1.2919870816     0.0272253479
   18      C       2.4689222033     1.6114789894    -0.7780456648
   19      C       2.9773927438     2.8958433538    -0.7854287350
   20      C       2.4150521886     3.8957527555    -0.0026236929
   21      C       2.9498617991     5.2951495192    -0.0259736933
   22      C       1.3256734677     3.5698307943     0.7982001797
   23      C       0.8138951728     2.2886265360     0.8216306183
   24      C       2.9684630306    -1.0430357994     0.7023703660
   25      C       3.8515873794    -2.1015949207     0.6465817371
   26      H       4.0959232403    -5.2482743019    -0.6290312893
   27      H       4.8570736989    -4.6564608233     0.8543583990
   28      H       5.4253223611    -4.0892434555    -0.7115189795
   29      H       2.1183066617    -4.1585034334    -1.3811430703
   30      H       0.5476628922    -2.2772556314    -1.3061714135
   31      H      -0.3375907852    -2.0535247529     1.2436336734
   32      H      -2.7488502692    -2.4390567283     1.3510432139
   33      H      -4.9632195992    -1.8728728759     0.8725888152
   34      H      -3.4179833545     1.1445507899    -0.8924966912
   35      H      -1.0186396552     1.5192007209    -1.0042925262
   36      H       2.9145889666     0.8468919094    -1.3974175333
   37      H       3.8232014216     3.1251202433    -1.4177200832
   38      H       3.9406555047     5.3259107057    -0.4722718983
   39      H       3.0040399598     5.7036369126     0.9813659714
   40      H       2.2917566752     5.9383504270    -0.6110163092
   41      H       0.8777323949     4.3310091591     1.4208629454
   42      H      -0.0247340922     2.0495985093     1.4591875206
   43      H       3.2036825020    -0.1679416806     1.2903403305
   44      H       4.7801061316    -2.0475647477     1.1968075300
 ----------------------------------------------------------------
 Molecular Point Group                 C1    NOp =  1
 Largest Abelian Subgroup              C1    NOp =  1
 Nuclear Repulsion Energy =        2006.15904902 hartrees
 There are       88 alpha and       88 beta electrons
 Requested basis set is 6-31G(d)
 There are 138 shells and 413 basis functions

 Total QAlloc Memory Limit   4000 MB
 Mega-Array Size       188 MB
 MEM_STATIC part       192 MB
 A cutoff of  1.0D-08 yielded   4249 shell pairs
 There are     40633 function pairs
 Smallest overlap matrix eigenvalue = 3.50E-04

 Scale SEOQF with 1.000000e-02/1.000000e-02/1.000000e+00

 Standard Electronic Orientation quadrupole field applied
 Nucleus-field energy     =    -0.0000000591 hartrees
 Guess from superposition of atomic densities
 Warning:  Energy on first SCF cycle will be non-variational
 SAD guess density has 176.000000 electrons

 -----------------------------------------------------------------------
  General SCF calculation program by
  Eric Jon Sundstrom, Paul Horn, Yuezhi Mao, Dmitri Zuev, Alec White,
  David Stuck, Shaama M.S., Shane Yost, Joonho Lee, David Small,
  Daniel Levine, Susi Lehtola, Hugh Burton, Evgeny Epifanovsky,
  Bang C. Huynh
 -----------------------------------------------------------------------
 Exchange:     0.2000 Hartree-Fock + 0.0800 Slater + 0.7200 B88
 Correlation:  0.1900 VWN1RPA + 0.8100 LYP
 Using SG-1 standard quadrature grid
 A restricted SCF calculation will be
 performed using DIIS
 SCF converges when DIIS error is below 1.0e-05
 ---------------------------------------
  Cycle       Energy         DIIS error
 ---------------------------------------
    1   -1110.4320443126      4.04e-02  
    2   -1103.8004733390      4.18e-03  
    3   -1103.5944847672      5.24e-03  
    4   -1104.1549605380      1.36e-03  
    5   -1104.1920258817      4.49e-04  
    6   -1104.1955882200      2.44e-04  
    7   -1104.1969488188      4.52e-05  
    8   -1104.1969844277      2.12e-05  
    9   -1104.1969942186      4.92e-06  Convergence criterion met
 ---------------------------------------
 SCF time:   CPU 127.03s  wall 127.00s 
 SCF   energy in the final basis set =    -1104.1969942186
 Total energy in the final basis set =    -1104.1969942186
 
 --------------------------------------------------------------
 
                    Orbital Energies (a.u.)
 --------------------------------------------------------------
 
 Alpha MOs
 -- Occupied --
-24.7370 -24.7262 -14.3639 -10.3473 -10.2251 -10.2219 -10.2218 -10.1965
-10.1955 -10.1880 -10.1878 -10.1867 -10.1839 -10.1829 -10.1828 -10.1828
-10.1826 -10.1822 -10.1822 -10.1819 -10.1818 -10.1817 -10.1816 -10.1792
-10.1789  -1.2767  -1.2162  -0.9774  -0.8635  -0.8608  -0.8464  -0.8007
 -0.7803  -0.7635  -0.7490  -0.7477  -0.7447  -0.7266  -0.6944  -0.6720
 -0.6376  -0.6204  -0.6171  -0.6073  -0.5984  -0.5903  -0.5683  -0.5637
 -0.5379  -0.5343  -0.5198  -0.5108  -0.4782  -0.4728  -0.4684  -0.4617
 -0.4587  -0.4485  -0.4417  -0.4335  -0.4325  -0.4277  -0.4235  -0.4215
 -0.4208  -0.4199  -0.4192  -0.4152  -0.4043  -0.3939  -0.3856  -0.3771
 -0.3701  -0.3642  -0.3588  -0.3527  -0.3502  -0.3443  -0.3369  -0.3363
 -0.3180  -0.2808  -0.2577  -0.2512  -0.2475  -0.2436  -0.2264  -0.1726
 -- Virtual --
 -0.0246  -0.0108  -0.0065   0.0099   0.0117   0.0279   0.0776   0.0913
  0.0993   0.1029   0.1245   0.1268   0.1275   0.1375   0.1383   0.1414
  0.1470   0.1533   0.1634   0.1688   0.1714   0.1818   0.1867   0.1876
  0.1895   0.1946   0.1991   0.1998   0.2031   0.2087   0.2135   0.2198
  0.2399   0.2414   0.2726   0.2742   0.2949   0.3119   0.3133   0.3209
  0.3289   0.3361   0.3421   0.3476   0.3604   0.3768   0.3921   0.3992
  0.4209   0.4262   0.4773   0.4842   0.4954   0.4975   0.5003   0.5082
  0.5142   0.5191   0.5245   0.5269   0.5331   0.5431   0.5479   0.5549
  0.5625   0.5697   0.5760   0.5773   0.5813   0.5871   0.5901   0.5913
  0.5949   0.5973   0.5999   0.6010   0.6041   0.6060   0.6106   0.6170
  0.6211   0.6257   0.6326   0.6454   0.6507   0.6553   0.6609   0.6683
  0.6745   0.6876   0.6908   0.7011   0.7164   0.7203   0.7302   0.7364
  0.7424   0.7560   0.7594   0.7845   0.8134   0.8179   0.8190   0.8221
  0.8226   0.8359   0.8417   0.8478   0.8515   0.8520   0.8563   0.8689
  0.8733   0.8774   0.8808   0.8832   0.8890   0.8918   0.9020   0.9156
  0.9163   0.9228   0.9262   0.9518   0.9642   0.9648   0.9809   0.9916
  0.9962   1.0084   1.0149   1.0218   1.0257   1.0391   1.0505   1.0542
  1.0741   1.1055   1.1204   1.1355   1.1514   1.1606   1.1621   1.1663
  1.1680   1.1727   1.1794   1.1837   1.1853   1.2026   1.2121   1.2221
  1.2321   1.2550   1.2590   1.2713   1.2896   1.3002   1.3057   1.3200
  1.3500   1.3640   1.3786   1.3915   1.3974   1.4097   1.4307   1.4328
  1.4391   1.4496   1.4513   1.4621   1.4676   1.4719   1.4740   1.4780
  1.4806   1.4912   1.4978   1.5154   1.5167   1.5219   1.5283   1.5342
  1.5384   1.6040   1.6534   1.7217   1.7253   1.7333   1.7453   1.7738
  1.7895   1.7925   1.8013   1.8064   1.8147   1.8368   1.8379   1.8433
  1.8455   1.8532   1.8641   1.8686   1.8776   1.8807   1.8874   1.9081
  1.9133   1.9169   1.9222   1.9337   1.9424   1.9515   1.9676   1.9770
  1.9830   1.9841   2.0021   2.0064   2.0101   2.0215   2.0407   2.0471
  2.0715   2.0813   2.0844   2.0940   2.1303   2.1332   2.1402   2.1436
  2.1535   2.1595   2.1645   2.1746   2.1827   2.2015   2.2050   2.2144
  2.2446   2.2579   2.2605   2.2740   2.2960   2.3120   2.3193   2.3272
  2.3320   2.3341   2.3363   2.3388   2.3511   2.3583   2.3707   2.3717
  2.4042   2.4284   2.4524   2.4573   2.4953   2.5279   2.5418   2.5660
  2.5773   2.6071   2.6175   2.6343   2.6351   2.6461   2.6697   2.6746
  2.6849   2.6998   2.7055   2.7458   2.7668   2.7773   2.7806   2.7897
  2.8407   2.8464   2.8526   2.8692   2.8723   2.8862   2.9116   2.9253
  2.9677   2.9864   3.0275   3.0432   3.0716   3.1549   3.2487   3.2709
  3.3386   3.4505   3.4778   3.4922   4.0859   4.1146   4.1171   4.1228
  4.1315   4.1354   4.1398   4.1788   4.1875   4.2026   4.2622   4.2645
  4.2896   4.3233   4.3474   4.3499   4.3799   4.4559   4.4689   4.5226
  4.7171   4.7443   4.7769   4.8289   5.2855
 --------------------------------------------------------------
 
          Ground-State Mulliken Net Atomic Charges

     Atom                 Charge (a.u.)
  ----------------------------------------
      1 C                    -0.529636
      2 C                     0.182070
      3 C                    -0.194545
      4 C                    -0.164170
      5 C                     0.274847
      6 N                    -0.653946
      7 C                     0.303451
      8 C                    -0.178628
      9 C                    -0.205665
     10 C                     0.198046
     11 C                    -0.298577
     12 C                     0.534858
     13 F                    -0.239044
     14 F                    -0.253614
     15 C                    -0.205807
     16 C                    -0.178605
     17 C                     0.274122
     18 C                    -0.162392
     19 C                    -0.193729
     20 C                     0.181813
     21 C                    -0.529304
     22 C                    -0.189129
     23 C                    -0.163687
     24 C                    -0.162492
     25 C                    -0.188645
     26 H                     0.154232
     27 H                     0.159695
     28 H                     0.163251
     29 H                     0.122473
     30 H                     0.145307
     31 H                     0.148005
     32 H                     0.127151
     33 H                     0.155808
     34 H                     0.138434
     35 H                     0.148541
     36 H                     0.144432
     37 H                     0.122177
     38 H                     0.154453
     39 H                     0.158415
     40 H                     0.164511
     41 H                     0.122524
     42 H                     0.145931
     43 H                     0.145063
     44 H                     0.122003
  ----------------------------------------
  Sum of atomic charges =     0.000000

 -----------------------------------------------------------------
                    Cartesian Multipole Moments
 -----------------------------------------------------------------
    Charge (ESU x 10^10)
                 0.0000
    Dipole Moment (Debye)
         X       2.2428      Y      -0.2709      Z       0.3170
       Tot       2.2812
    Quadrupole Moments (Debye-Ang)
        XX    -145.2836     XY       1.3647     YY    -129.6464
        XZ      -2.1915     YZ      -0.0369     ZZ    -142.2982
    Octopole Moments (Debye-Ang^2)
       XXX      25.0797    XXY     -15.1303    XYY      -9.3644
       YYY      11.7641    XXZ       6.4114    XYZ       1.6417
       YYZ      -0.3389    XZZ     -30.3899    YZZ       0.9869
       ZZZ      -6.3534
    Hexadecapole Moments (Debye-Ang^3)
      XXXX   -9525.0277   XXXY     -32.5506   XXYY   -2252.1598
      XYYY      14.8566   YYYY   -5008.3148   XXXZ      -3.5484
      XXYZ     -57.2669   XYYZ     -24.9149   YYYZ      43.0965
      XXZZ   -1570.5258   XYZZ       3.2468   YYZZ    -934.8374
      XZZZ      38.9434   YZZZ      -2.7425   ZZZZ    -474.7525
 -----------------------------------------------------------------
Archival summary:
1\1\nia2015.scinet.local\SP\ProcedureUnspecified\6-31G*\212219\rhickman\TueFeb814:20:192022TueFeb814:20:192022\0\\#,ProcedureUnspecified,6-31G*,\\0,1\N\C,1,1.3884\C,2,1.39837,1,120.829\H,3,1.07988,2,119.457,1,0.557422,0\C,3,1.37568,2,120.496,1,179.984,0\H,5,1.08039,3,119.249,2,-179.54,0\C,2,1.39841,1,120.859,3,179.975,0\H,7,1.07982,2,119.293,1,0.752098,0\C,7,1.37653,2,120.959,1,-179.835,0\H,9,1.07755,7,118.774,2,-179.512,0\C,9,1.39798,7,120.929,2,-0.133501,0\C,1,1.40309,2,120.519,3,32.1255,0\C,12,1.39277,1,120.754,2,39.5025,0\H,13,1.08025,12,119.527,1,0.110756,0\C,13,1.3815,12,120.304,1,179.919,0\H,15,1.08066,13,119.215,12,-179.965,0\C,15,1.38864,13,121.161,12,-0.507048,0\C,17,1.39098,15,118.225,13,0.09194,0\H,18,1.08065,17,119.401,15,179.819,0\C,18,1.3797,17,121.189,15,0.351848,0\H,20,1.0802,18,120.277,17,179.509,0\C,1,1.40337,2,120.495,3,-147.983,0\C,22,1.39264,1,120.449,2,-141.084,0\H,23,1.0802,22,119.485,1,0.719016,0\C,23,1.38137,22,120.304,1,-179.28,0\H,25,1.08063,23,119.242,22,-179.927,0\C,25,1.38882,23,121.155,22,-0.364434,0\C,27,1.39079,25,118.228,23,0.302375,0\H,28,1.08063,27,119.433,25,179.532,0\C,28,1.37984,27,121.191,25,0.143744,0\H,30,1.08024,28,120.227,27,179.203,0\C,11,1.45006,9,123.779,7,179.978,0\H,32,1.08078,11,116.436,9,179.249,0\C,32,1.32568,11,128.683,9,-0.884584,0\F,34,1.33013,32,128.209,11,0.0435429,0\F,34,1.33522,32,123.062,11,-179.906,0\C,27,1.49829,25,121.274,23,-178.957,0\H,37,1.08711,27,110.987,25,-16.2837,0\H,37,1.08836,27,110.726,25,-137.359,0\H,37,1.09045,27,110.112,25,103.557,0\C,17,1.49837,15,121.37,13,-179.314,0\H,41,1.087,17,110.992,15,-10.0222,0\H,41,1.0888,17,110.605,15,-130.894,0\H,41,1.09013,17,110.235,15,110.077,0\\\@

 Total job time:  128.25s(wall), 127.46s(cpu) 
 Tue Feb  8 14:20:19 2022

        *************************************************************
        *                                                           *
        *  Thank you very much for using Q-Chem.  Have a nice day.  *
        *                                                           *
        *************************************************************


