23
 energy: -33.938180204189 gnorm: 0.000051766335 xtb: 6.4.1 (23d549d)
C        -3.37030706960000    1.77071960370000    0.04934385740000
C        -2.77816649860000    0.58396059720000    0.07508914730000
C        -1.34239424860000    0.32422008180000    0.01050102300000
C        -0.37575099530000    1.33107596470000   -0.04291528330000
C         0.96425995810000    0.97594439910000   -0.10393178610000
C         2.03720086610000    2.03483256820000   -0.17045485740000
O         3.30581122060000    1.59559622960000    0.24547434910000
C         1.28962311050000   -0.37232530950000   -0.10952125400000
C         0.26368310130000   -1.31887996570000   -0.04719656940000
C         0.57794609630000   -2.74428129510000   -0.04673792280000
C        -0.34458751720000   -3.69587908470000    0.01410183000000
N        -1.01462370600000   -0.96400937850000    0.01348608060000
H        -4.44185122730000    1.86142012470000    0.10010189820000
H        -2.82437582140000    2.69616132950000   -0.02453315380000
H        -3.36921048590000   -0.31904517030000    0.14486836380000
H        -0.65838737050000    2.37184547250000   -0.03536448620000
H         1.71886726710000    2.91476482340000    0.40969229420000
H         2.16589737480000    2.34919259210000   -1.21211610450000
H         3.24248744400000    1.27837215540000    1.15351934370000
H         2.32258380560000   -0.68159597170000   -0.16863099010000
H         1.63073008660000   -2.98918398230000   -0.10115979550000
H        -1.38788524110000   -3.43704192650000    0.06691997470000
H        -0.08918660830000   -4.74161147500000    0.01238470450000
