24
 energy: -38.039336635679 gnorm: 0.000057206493 xtb: 6.4.1 (23d549d)
C         3.50695389690000    1.95871301890000    0.34330157770000
C         2.29261630950000    2.02428938230000   -0.18910899720000
C         1.28346535160000    0.98541984740000   -0.13938427370000
C        -0.10115927690000    1.22471065890000   -0.13034101190000
C        -0.73682267880000    0.00002464280000   -0.03422837450000
C        -2.13804999870000   -0.37754685050000    0.01818105280000
O        -2.52219652900000   -1.52531892770000    0.10256672710000
O        -2.96305835650000    0.68191896920000   -0.03805228690000
C        -4.34888982780000    0.38205025360000    0.00641747530000
N         0.22634835940000   -0.96552987780000    0.00524514420000
C         1.45794091950000   -0.40607460460000   -0.06372923430000
C         2.66893854600000   -1.18164568570000   -0.13322748510000
C         2.77597158530000   -2.47032177330000    0.18268710940000
H         4.19688147150000    2.78192431610000    0.26836164850000
H         3.84827018040000    1.09781233100000    0.89197899880000
H         1.97277231030000    2.93599463360000   -0.67899731760000
H        -0.58513709530000    2.17968745890000   -0.17158769420000
H        -4.86723432970000    1.33686904150000   -0.02333859190000
H        -4.59224183130000   -0.15900387360000    0.92351946420000
H        -4.63237553420000   -0.23517595750000   -0.84906592480000
H         0.01482062140000   -1.95007592970000    0.04066982510000
H         3.53444923250000   -0.63903716590000   -0.48672474110000
H         1.94898160850000   -3.04632562280000    0.56350185340000
H         3.71041641940000   -2.99418808290000    0.08628233480000
