
Running Job 1 of 1 tidas/B033/conf-8/spe_input.inp
qchem tidas/B033/conf-8/spe_input.inp_246099.0 /home/a/aspuru/seifridm/acdc_laser/descriptor_computation/qchem246099/ 0
/gpfs/fs1/scinet/niagara/software/commercial/qc54/exe/qcprog.exe_s tidas/B033/conf-8/spe_input.inp_246099.0 /home/a/aspuru/seifridm/acdc_laser/descriptor_computation/qchem246099/
                  Welcome to Q-Chem
     A Quantum Leap Into The Future Of Chemistry


 Q-Chem 5.4, Q-Chem, Inc., Pleasanton, CA (2021)

 License issued to: SRG Alan Aspuru-Guzik, University of Toronto

 E. Epifanovsky,  A. T. B. Gilbert,  Xintian Feng,  Joonho Lee,  Yuezhi Mao,  
 N. Mardirossian,  P. Pokhilko,  A. White,  M. Wormit,  M. P. Coons,  
 A. L. Dempwolff,  Zhengting Gan,  D. Hait,  P. R. Horn,  L. D. Jacobson,  
 I. Kaliman,  J. Kussmann,  A. W. Lange,  Ka Un Lao,  D. S. Levine,  Jie Liu,  
 S. C. McKenzie,  A. F. Morrison,  K. Nanda,  F. Plasser,  D. R. Rehn,  
 M. L. Vidal,  Zhi-Qiang You,  Ying Zhu,  B. Alam,  B. Albrecht,  
 A. Aldossary,  E. Alguire,  J. H. Andersen,  D. Barton,  K. Begam,  A. Behn,  
 Y. A. Bernard,  E. J. Berquist,  H. Burton,  A. Carreras,  K. Carter-Fenk,  
 Romit Chakraborty,  A. D. Chien,  K. D. Closser,  V. Cofer-Shabica,  
 S. Dasgupta,  Jia Deng,  M. de Wergifosse,  M. Diedenhofen,  Hainam Do,  
 S. Ehlert,  Po-Tung Fang,  S. Fatehi,  Qingguo Feng,  T. Friedhoff,  
 J. Gayvert,  Qinghui Ge,  G. Gidofalvi,  M. Goldey,  J. Gomes,  
 C. Gonzalez-Espinoza,  S. Gulania,  A. Gunina,  M. W. D. Hanson-Heine,  
 P. H. P. Harbach,  A. W. Hauser,  M. F. Herbst,  M. Hernandez Vera,  
 M. Hodecker,  Z. C. Holden,  S. Houck,  Xunkun Huang,  Kerwin Hui,  
 B. C. Huynh,  M. Ivanov,  Hyunjun Ji,  Hanjie Jiang,  B. Kaduk,  S. Kaehler,  
 K. Khistyaev,  Jaehoon Kim,  P. Klunzinger,  Z. Koczor-Benda,  
 Joong Hoon Koh,  D. Kosenkov,  L. Koulias,  T. Kowalczyk,  C. M. Krauter,  
 K. Kue,  A. Kunitsa,  T. Kus,  A. Landau,  K. V. Lawler,  D. Lefrancois,  
 S. Lehtola,  Rain Li,  Yi-Pei Li,  Jiashu Liang,  M. Liebenthal,  
 Hung-Hsuan Lin,  You-Sheng Lin,  Fenglai Liu,  Kuan-Yu Liu,  
 M. Loipersberger,  A. Luenser,  A. Manjanath,  P. Manohar,  E. Mansoor,  
 S. F. Manzer,  Shan-Ping Mao,  A. V. Marenich,  T. Markovich,  S. Mason,  
 S. A. Maurer,  P. F. McLaughlin,  M. F. S. J. Menger,  J.-M. Mewes,  
 S. A. Mewes,  P. Morgante,  J. W. Mullinax,  K. J. Oosterbaan,  G. Paran,  
 Alexander C. Paul,  Suranjan K. Paul,  F. Pavosevic,  Zheng Pei,  S. Prager,  
 E. I. Proynov,  E. Ramos,  B. Rana,  A. E. Rask,  A. Rettig,  R. M. Richard,  
 F. Rob,  E. Rossomme,  T. Scheele,  M. Scheurer,  M. Schneider,  
 N. Sergueev,  S. M. Sharada,  W. Skomorowski,  D. W. Small,  C. J. Stein,  
 Yu-Chuan Su,  E. J. Sundstrom,  Zhen Tao,  J. Thirman,  T. Tsuchimochi,  
 N. M. Tubman,  S. P. Veccham,  O. Vydrov,  J. Wenzel,  J. Witte,  A. Yamada,  
 Kun Yao,  S. Yeganeh,  S. R. Yost,  A. Zech,  Igor Ying Zhang,  Xing Zhang,  
 Yu Zhang,  D. Zuev,  A. Aspuru-Guzik,  A. T. Bell,  N. A. Besley,  
 K. B. Bravaya,  B. R. Brooks,  D. Casanova,  Jeng-Da Chai,  S. Coriani,  
 C. J. Cramer,  A. E. DePrince, III,  R. A. DiStasio Jr.,  A. Dreuw,  
 B. D. Dunietz,  T. R. Furlani,  W. A. Goddard III,  S. Grimme,  
 S. Hammes-Schiffer,  T. Head-Gordon,  W. J. Hehre,  Chao-Ping Hsu,  
 T.-C. Jagau,  Yousung Jung,  A. Klamt,  Jing Kong,  D. S. Lambrecht,  
 WanZhen Liang,  N. J. Mayhall,  C. W. McCurdy,  J. B. Neaton,  T. Neudecker,  
 C. Ochsenfeld,  J. A. Parkhill,  R. Peverati,  V. A. Rassolov,  Yihan Shao,  
 L. V. Slipchenko,  R. P. Steele,  J. E. Subotnik,  A. J. W. Thom,  
 A. Tkatchenko,  D. G. Truhlar,  T. Van Voorhis,  T. A. Wesolowski,  
 K. B. Whaley,  H. L. Woodcock III,  P. M. Zimmerman,  S. Faraji,  
 P. M. W. Gill,  M. Head-Gordon,  J. M. Herbert,  A. I. Krylov

 Additional authors since Version 5.4.0: 
 Chandrima Chakravarty,  L. Cunha,  R. Kang,  Yongbin Kim,  S. Kotaru,  
 Shaozhi Li,  Xiangyuan Li,  F. Matz,  A. Molle,  V. Parravicini,  
 Haisheng Ren,  Hengyuan Shen,  Yingli Su,  Hung-Yi Tsai,  C. Utku,  
 Fang Wang,  Jeff Yang,  F. Zeller

 Contributors to earlier versions of Q-Chem not listed above: 
 R. D. Adamson,  B. Austin,  R. Baer,  J. Baker,  G. J. O. Beran,  
 K. Brandhorst,  S. T. Brown,  E. F. C. Byrd,  Arup K. Chakraborty,  
 G. K. L. Chan,  Chun-Min Chang,  Yunqing Chen,  C.-L. Cheng,  
 Siu Hung Chien,  D. M. Chipman,  D. L. Crittenden,  H. Dachsel,  
 R. J. Doerksen,  A. D. Dutoi,  R. G. Edgar,  J. Fosso-Tande,  
 L. Fusti-Molnar,  D. Ghosh,  A. Ghysels,  A. Golubeva-Zadorozhnaya,  
 J. Gonthier,  M. S. Gordon,  S. R. Gwaltney,  G. Hawkins,  J. E. Herr,  
 A. Heyden,  S. Hirata,  E. G. Hohenstein,  G. Kedziora,  F. J. Keil,  
 C. Kelley,  Jihan Kim,  R. A. King,  R. Z. Khaliullin,  P. P. Korambath,  
 W. Kurlancheek,  A. Laurent,  A. M. Lee,  M. S. Lee,  S. V. Levchenko,  
 Ching Yeh Lin,  D. Liotard,  E. Livshits,  R. C. Lochan,  I. Lotan,  
 L. A. Martinez-Martinez,  P. E. Maslen,  N. Nair,  D. P. O'Neill,  
 D. Neuhauser,  E. Neuscamman,  C. M. Oana,  R. Olivares-Amaya,  R. Olson,  
 T. M. Perrine,  B. Peters,  P. A. Pieniazek,  A. Prociuk,  Y. M. Rhee,  
 J. Ritchie,  M. A. Rohrdanz,  E. Rosta,  N. J. Russ,  H. F. Schaefer III,  
 M. W. Schmidt,  N. E. Schultz,  S. Sharma,  N. Shenvi,  C. D. Sherrill,  
 A. C. Simmonett,  A. Sodt,  T. Stein,  D. Stuck,  K. S. Thanthiriwatte,  
 V. Vanovschi,  L. Vogt,  Tao Wang,  A. Warshel,  M. A. Watson,  
 C. F. Williams,  Q. Wu,  X. Xu,  Jun Yang,  W. Zhang,  Yan Zhao

   Please cite Q-Chem as follows:
  "Software for the frontiers of quantum chemistry:
   An overview of developments in the Q-Chem 5 package"
   J. Chem. Phys. 155, 084801 (2021)
   https://doi.org/10.1063/5.0055522 (open access)

 Q-Chem 5.4.2 for Intel X86 EM64T Linux

 Parts of Q-Chem use Armadillo 9.900.5 (Nocturnal Misbehaviour).
 http://arma.sourceforge.net/

 Q-Chem begins on Fri Aug 12 12:44:17 2022  

 Host: 
0

     Scratch files written to /home/a/aspuru/seifridm/acdc_laser/descriptor_computation/qchem246099//
 Dec1321 |scratch|qcdevops|jenkins|workspace|build_RNUM 6959   
 Processing $rem in /gpfs/fs1/scinet/niagara/software/commercial/qc54/config/preferences:
 Processing $rem in /home/a/aspuru/seifridm/.qchemrc:

 Checking the input file for inconsistencies... 	...done.

--------------------------------------------------------------
User input:
--------------------------------------------------------------
$molecule
0 1
C           -3.64262279770000        1.32757286610000       -0.76941332040000
C           -2.56771552570000        1.36993782640000        0.00260057680000
C           -1.53959721970000        0.31061068660000       -0.00839952120000
C           -2.01038672350000       -0.97398382210000        0.26126254220000
C           -1.16607069630000       -2.06558343460000        0.25830947810000
Cl          -1.79355773970000       -3.64301974040000        0.58673711160000
C            0.17884821510000       -1.90041728340000       -0.01138346290000
C            0.68088766620000       -0.63076178390000       -0.26243221900000
C            2.11191928700000       -0.51624556270000       -0.54627202730000
C            2.93654984240000        0.43250552600000       -0.13771594870000
F            2.66529827620000        1.46722498570000        0.64203964320000
F            4.23582305400000        0.44555672140000       -0.43337243950000
C           -0.17436214480000        0.49371893850000       -0.28354191260000
O            0.43478686110000        1.62837484560000       -0.70566664800000
C           -0.11476495170000        2.91709288550000       -0.51903459030000
C            0.01459419340000        3.39588079760000        0.92307255740000
H           -4.40972321760000        2.08090317780000       -0.71546434880000
H           -3.78174986010000        0.54880576190000       -1.50071281540000
H           -2.45830623020000        2.16065360280000        0.73289501310000
H           -3.06000351490000       -1.10485105970000        0.47329034180000
H            0.84373049100000       -2.74939668810000       -0.01256484830000
H            2.55868689820000       -1.31526685010000       -1.11927465480000
H           -1.15511505050000        2.94801792620000       -0.86026734750000
H            0.48602349190000        3.55425729230000       -1.17433190700000
H           -0.49012187430000        2.71529682840000        1.60504663040000
H           -0.41966368220000        4.38701960340000        1.02142189560000
H            1.06302631010000        3.43640293230000        1.20439774750000
$end

$rem
BASIS = 6-31G*
GUI = 2
METHOD = B3LYP
PRINT_ORBITALS false
MOLDEN_FORMAT false
$end
--------------------------------------------------------------
 ----------------------------------------------------------------
             Standard Nuclear Orientation (Angstroms)
    I     Atom           X                Y                Z
 ----------------------------------------------------------------
    1      C      -1.8783220989     3.3002108285    -0.7503362881
    2      C      -1.0724489702     2.6090082917     0.0408864645
    3      C      -0.9756342151     1.1369709996    -0.0143888131
    4      C      -2.1788535852     0.4572282934     0.1720419725
    5      C      -2.2431288802    -0.9203089937     0.1198146099
    6      Cl     -3.7580545618    -1.7228724076     0.3452079210
    7      C      -1.0996710305    -1.6587016009    -0.1170429885
    8      C       0.1167037271    -1.0112159829    -0.2852363278
    9      C       1.2935867277    -1.8435229092    -0.5377082767
   10      C       2.5142020062    -1.6712968530    -0.0607399569
   11      F       2.9381851043    -0.7348312986     0.7732331562
   12      F       3.5257956253    -2.4948080383    -0.3331397550
   13      C       0.1951649318     0.3992102984    -0.2552980959
   14      O       1.4142802134     0.8802780459    -0.6003018402
   15      C       1.8210357739     2.2101903356    -0.3482777896
   16      C       2.1563287852     2.4420414034     1.1212351766
   17      H      -1.9768589608     4.3688404766    -0.6655939352
   18      H      -2.4512018016     2.8230127663    -1.5279765322
   19      H      -0.5143863622     3.1146092510     0.8177169429
   20      H      -3.0725952124     1.0319467698     0.3583267202
   21      H      -1.1434613248    -2.7354413631    -0.1564099871
   22      H       1.1451923406    -2.7216639162    -1.1486221864
   23      H       1.0670770459     2.9203041276    -0.7046611782
   24      H       2.7235762180     2.3263549367    -0.9551273101
   25      H       1.2974018798     2.2296324498     1.7538080910
   26      H       2.4626222982     3.4738999973     1.2697638044
   27      H       2.9657141271     1.7829804321     1.4221169037
 ----------------------------------------------------------------
 Molecular Point Group                 C1    NOp =  1
 Largest Abelian Subgroup              C1    NOp =  1
 Nuclear Repulsion Energy =        1202.85106295 hartrees
 There are       63 alpha and       63 beta electrons
 Requested basis set is 6-31G(d)
 There are 87 shells and 266 basis functions

 Total QAlloc Memory Limit   8000 MB
 Mega-Array Size       188 MB
 MEM_STATIC part       192 MB
 A cutoff of  1.0D-08 yielded   2463 shell pairs
 There are     24464 function pairs
 Smallest overlap matrix eigenvalue = 3.24E-04

 Scale SEOQF with 1.000000e-01/1.000000e-01/1.000000e-01

 Standard Electronic Orientation quadrupole field applied
 Nucleus-field energy     =     0.0000000526 hartrees
 Guess from superposition of atomic densities
 Warning:  Energy on first SCF cycle will be non-variational
 SAD guess density has 126.000000 electrons

 -----------------------------------------------------------------------
  General SCF calculation program by
  Eric Jon Sundstrom, Paul Horn, Yuezhi Mao, Dmitri Zuev, Alec White,
  David Stuck, Shaama M.S., Shane Yost, Joonho Lee, David Small,
  Daniel Levine, Susi Lehtola, Hugh Burton, Evgeny Epifanovsky,
  Bang C. Huynh
 -----------------------------------------------------------------------
 Exchange:     0.2000 Hartree-Fock + 0.0800 Slater + 0.7200 B88
 Correlation:  0.1900 VWN1RPA + 0.8100 LYP
 Using SG-1 standard quadrature grid
 A restricted SCF calculation will be
 performed using DIIS
 SCF converges when DIIS error is below 1.0e-05
 ---------------------------------------
  Cycle       Energy         DIIS error
 ---------------------------------------
    1   -1202.4388230284      4.80e-02  
    2   -1198.6962785838      5.20e-03  
    3   -1198.5377170438      6.71e-03  
    4   -1198.9158486462      1.31e-03  
    5   -1198.9303591034      4.16e-04  
    6   -1198.9315965330      1.89e-04  
    7   -1198.9319010683      5.05e-05  
    8   -1198.9319214422      1.75e-05  
    9   -1198.9319242707      5.37e-06  Convergence criterion met
 ---------------------------------------
 SCF time:   CPU 74.35s  wall 77.00s 
 SCF   energy in the final basis set =    -1198.9319242707
 Total energy in the final basis set =    -1198.9319242707
 
 --------------------------------------------------------------
 
                    Orbital Energies (a.u.)
 --------------------------------------------------------------
 
 Alpha MOs
 -- Occupied --
******** -24.7369 -24.7306 -19.1804 -10.3533 -10.2598 -10.2449 -10.2418
-10.2100 -10.2083 -10.2026 -10.1997 -10.1997 -10.1985 -10.1888 -10.1853
 -9.4619  -7.2257  -7.2162  -7.2158  -1.2808  -1.2196  -1.0743  -0.8967
 -0.8500  -0.8222  -0.7811  -0.7762  -0.7369  -0.7216  -0.6579  -0.6488
 -0.6214  -0.5964  -0.5762  -0.5644  -0.5374  -0.5240  -0.5139  -0.4986
 -0.4807  -0.4708  -0.4643  -0.4489  -0.4423  -0.4360  -0.4327  -0.4304
 -0.4104  -0.4040  -0.4034  -0.3940  -0.3880  -0.3728  -0.3591  -0.3547
 -0.3288  -0.3108  -0.3068  -0.2928  -0.2704  -0.2360  -0.2123
 -- Virtual --
 -0.0277  -0.0141   0.0171   0.0448   0.0522   0.0920   0.1060   0.1205
  0.1329   0.1349   0.1444   0.1525   0.1575   0.1628   0.1669   0.1724
  0.1809   0.1855   0.1959   0.2162   0.2322   0.2524   0.2739   0.2977
  0.3173   0.3203   0.3442   0.3696   0.3931   0.4037   0.4114   0.4221
  0.4455   0.4550   0.4663   0.4895   0.4962   0.5096   0.5190   0.5331
  0.5377   0.5446   0.5590   0.5610   0.5672   0.5794   0.5814   0.5882
  0.5907   0.6020   0.6156   0.6226   0.6260   0.6329   0.6554   0.6647
  0.6767   0.6834   0.7180   0.7350   0.7576   0.7766   0.7945   0.8118
  0.8277   0.8384   0.8391   0.8522   0.8568   0.8597   0.8750   0.8774
  0.8844   0.9057   0.9104   0.9216   0.9331   0.9359   0.9452   0.9597
  0.9688   0.9865   0.9947   1.0084   1.0172   1.0308   1.0630   1.0803
  1.0954   1.1222   1.1276   1.1385   1.1742   1.1859   1.1963   1.2003
  1.2283   1.2573   1.2842   1.2926   1.3085   1.3342   1.3518   1.3605
  1.3678   1.3867   1.4157   1.4267   1.4368   1.4592   1.4768   1.4886
  1.5061   1.5384   1.5479   1.5645   1.6025   1.6239   1.6517   1.6665
  1.7040   1.7223   1.7566   1.7652   1.7878   1.7903   1.8102   1.8223
  1.8369   1.8521   1.8609   1.8818   1.8989   1.9266   1.9483   1.9611
  1.9730   1.9789   1.9856   2.0062   2.0141   2.0220   2.0548   2.0649
  2.0874   2.1102   2.1291   2.1447   2.1591   2.1871   2.2141   2.2226
  2.2309   2.2388   2.2640   2.2836   2.3028   2.3088   2.3274   2.3626
  2.3943   2.4119   2.4344   2.4493   2.5133   2.5304   2.5440   2.5866
  2.6030   2.6279   2.6494   2.6599   2.7037   2.7332   2.7445   2.7788
  2.7914   2.8562   2.9085   2.9109   2.9620   3.0071   3.0649   3.1288
  3.1960   3.3177   3.4475   4.0713   4.0785   4.1176   4.1299   4.1531
  4.1909   4.2441   4.2683   4.3131   4.4069   4.4425   4.4608   4.5587
  4.7617   4.8873   5.3050
 --------------------------------------------------------------
 
          Ground-State Mulliken Net Atomic Charges

     Atom                 Charge (a.u.)
  ----------------------------------------
      1 C                    -0.321320
      2 C                    -0.162250
      3 C                     0.099946
      4 C                    -0.185180
      5 C                    -0.068965
      6 Cl                   -0.022265
      7 C                    -0.189100
      8 C                     0.111329
      9 C                    -0.311724
     10 C                     0.573231
     11 F                    -0.231343
     12 F                    -0.250437
     13 C                     0.274328
     14 O                    -0.519757
     15 C                    -0.049625
     16 C                    -0.469403
     17 H                     0.145905
     18 H                     0.154441
     19 H                     0.154551
     20 H                     0.153810
     21 H                     0.150736
     22 H                     0.167652
     23 H                     0.159450
     24 H                     0.155390
     25 H                     0.159608
     26 H                     0.150214
     27 H                     0.170778
  ----------------------------------------
  Sum of atomic charges =     0.000000

 -----------------------------------------------------------------
                    Cartesian Multipole Moments
 -----------------------------------------------------------------
    Charge (ESU x 10^10)
                 0.0000
    Dipole Moment (Debye)
         X       0.9681      Y       2.3745      Z      -0.1235
       Tot       2.5672
    Quadrupole Moments (Debye-Ang)
        XX    -104.1844     XY       0.1168     YY     -88.1825
        XZ       1.4047     YZ       1.6408     ZZ     -98.8125
    Octopole Moments (Debye-Ang^2)
       XXX      53.6948    XXY      21.5102    XYY      17.0638
       YYY      -6.8658    XXZ      -3.0172    XYZ       1.7869
       YYZ      -3.0976    XZZ      16.4002    YZZ      -8.0879
       ZZZ       3.0404
    Hexadecapole Moments (Debye-Ang^3)
      XXXX   -3113.9514   XXXY     -30.5320   XXYY    -869.5208
      XYYY     -41.2963   YYYY   -2046.2881   XXXZ       4.6294
      XXYZ     -14.4471   XYYZ      10.8768   YYYZ       8.4768
      XXZZ    -553.0043   XYZZ     -23.3758   YYZZ    -404.6522
      XZZZ       4.5328   YZZZ      -1.0845   ZZZZ    -270.9453
 -----------------------------------------------------------------
 Total job time:  78.22s(wall), 74.94s(cpu) 
 Fri Aug 12 12:45:36 2022

        *************************************************************
        *                                                           *
        *  Thank you very much for using Q-Chem.  Have a nice day.  *
        *                                                           *
        *************************************************************


