23
 energy: -29.606928324052 gnorm: 0.000089218190 xtb: 6.4.1 (23d549d)
C         3.26760668150000    1.56019816560000    0.08864297410000
C         2.84337837140000    0.30963939960000   -0.04789030010000
C         1.46148710180000   -0.15398934460000   -0.02735809630000
C         1.20388320840000   -1.52116637720000   -0.13237800810000
C        -0.09141151490000   -1.99871368190000   -0.11060145350000
C        -1.17598312600000   -1.14259613880000    0.01462529070000
C        -2.57084289230000   -1.69122876320000    0.01736414000000
C        -0.93589200110000    0.23621089810000    0.11546881560000
C        -2.04861715300000    1.17756411490000    0.25400616490000
C        -2.06863681500000    2.40322634840000   -0.25057976020000
C         0.37242500390000    0.70473131940000    0.09550278300000
H         4.31646775720000    1.80143233220000    0.05952680510000
H         2.59920550800000    2.39103063170000    0.23632530760000
H         3.57543659800000   -0.47704892070000   -0.18866685260000
H         2.02832238650000   -2.21369362070000   -0.22856625990000
H        -0.26612925730000   -3.06251250920000   -0.19443700290000
H        -2.56060168690000   -2.76038252960000   -0.18065015190000
H        -3.17967045640000   -1.20218549050000   -0.74174792910000
H        -3.04598469230000   -1.52877495060000    0.98536846430000
H        -2.90729931190000    0.81708359480000    0.80520145970000
H        -1.25374515020000    2.79454737550000   -0.83660952740000
H        -2.91181213520000    3.05868369340000   -0.11250126000000
H         0.53844885820000    1.76565418790000    0.19652336200000
