
Running Job 1 of 1 fragments/C013/conf-0/spe_input.inp
qchem fragments/C013/conf-0/spe_input.inp_85983.0 /gpfs/fs0/scratch/a/aspuru/rhickman/descriptor_computation/qchem85983/ 0
/scinet/niagara/software/commercial/qc52/exe/qcprog.exe_s fragments/C013/conf-0/spe_input.inp_85983.0 /gpfs/fs0/scratch/a/aspuru/rhickman/descriptor_computation/qchem85983/
                  Welcome to Q-Chem
     A Quantum Leap Into The Future Of Chemistry


 Q-Chem 5.2, Q-Chem, Inc., Pleasanton, CA (2019)

 License issued to: SRG Alan Aspuru-Guzik, University of Toronto

 Yihan Shao,  Zhengting Gan,  E. Epifanovsky,  A. T. B. Gilbert,  M. Wormit,  
 J. Kussmann,  A. W. Lange,  A. Behn,  Jia Deng,  Xintian Feng,  D. Ghosh,  
 M. Goldey,  P. R. Horn,  L. D. Jacobson,  I. Kaliman,  T. Kus,  A. Landau,  
 Jie Liu,  E. I. Proynov,  R. M. Richard,  R. P. Steele,  E. J. Sundstrom,  
 H. L. Woodcock III,  P. M. Zimmerman,  D. Zuev,  B. Albrecht,  E. Alguire,  
 S. A. Baeppler,  D. Barton,  Z. Benda,  Y. A. Bernard,  E. J. Berquist,  
 K. B. Bravaya,  H. Burton,  D. Casanova,  Chun-Min Chang,  Yunqing Chen,  
 A. Chien,  K. D. Closser,  M. P. Coons,  S. Coriani,  S. Dasgupta,  
 A. L. Dempwolff,  M. Diedenhofen,  Hainam Do,  R. G. Edgar,  Po-Tung Fang,  
 S. Faraji,  S. Fatehi,  Qingguo Feng,  K. D. Fenk,  J. Fosso-Tande,  
 J. Gayvert,  Qinghui Ge,  A. Ghysels,  G. Gidofalvi,  J. Gomes,  
 J. Gonthier,  A. Gunina,  D. Hait,  M. W. D. Hanson-Heine,  
 P. H. P. Harbach,  A. W. Hauser,  M. F. Herbst,  J. E. Herr,  
 E. G. Hohenstein,  Z. C. Holden,  Kerwin Hui,  B. C. Huynh,  T.-C. Jagau,  
 Hyunjun Ji,  B. Kaduk,  K. Khistyaev,  Jaehoon Kim,  P. Klunzinger,  K. Koh,  
 D. Kosenkov,  L. Koulias,  T. Kowalczyk,  C. M. Krauter,  A. Kunitsa,  
 Ka Un Lao,  A. Laurent,  K. V. Lawler,  Joonho Lee,  D. Lefrancois,  
 S. Lehtola,  D. S. Levine,  Yi-Pei Li,  You-Sheng Lin,  Fenglai Liu,  
 E. Livshits,  A. Luenser,  P. Manohar,  E. Mansoor,  S. F. Manzer,  
 Shan-Ping Mao,  Yuezhi Mao,  N. Mardirossian,  A. V. Marenich,  
 T. Markovich,  L. A. Martinez-Martinez,  S. A. Maurer,  N. J. Mayhall,  
 S. C. McKenzie,  J.-M. Mewes,  P. Morgante,  A. F. Morrison,  
 J. W. Mullinax,  K. Nanda,  T. S. Nguyen-Beck,  R. Olivares-Amaya,  
 J. A. Parkhill,  Zheng Pei,  T. M. Perrine,  F. Plasser,  P. Pokhilko,  
 S. Prager,  A. Prociuk,  E. Ramos,  D. R. Rehn,  F. Rob,  M. Scheurer,  
 M. Schneider,  N. Sergueev,  S. M. Sharada,  S. Sharma,  D. W. Small,  
 T. Stauch,  T. Stein,  Yu-Chuan Su,  A. J. W. Thom,  A. Tkatchenko,  
 T. Tsuchimochi,  N. M. Tubman,  L. Vogt,  M. L. Vidal,  O. Vydrov,  
 M. A. Watson,  J. Wenzel,  M. de Wergifosse,  T. A. Wesolowski,  A. White,  
 J. Witte,  A. Yamada,  Jun Yang,  K. Yao,  S. Yeganeh,  S. R. Yost,  
 Zhi-Qiang You,  A. Zech,  Igor Ying Zhang,  Xing Zhang,  Yan Zhao,  
 Ying Zhu,  B. R. Brooks,  G. K. L. Chan,  C. J. Cramer,  M. S. Gordon,  
 W. J. Hehre,  A. Klamt,  M. W. Schmidt,  C. D. Sherrill,  D. G. Truhlar,  
 A. Aspuru-Guzik,  R. Baer,  A. T. Bell,  N. A. Besley,  Jeng-Da Chai,  
 A. E. DePrince, III,  R. A. DiStasio Jr.,  A. Dreuw,  B. D. Dunietz,  
 T. R. Furlani,  Chao-Ping Hsu,  Yousung Jung,  Jing Kong,  D. S. Lambrecht,  
 WanZhen Liang,  C. Ochsenfeld,  V. A. Rassolov,  L. V. Slipchenko,  
 J. E. Subotnik,  T. Van Voorhis,  J. M. Herbert,  A. I. Krylov,  
 P. M. W. Gill,  M. Head-Gordon

 Contributors to earlier versions of Q-Chem not listed above: 
 R. D. Adamson,  B. Austin,  J. Baker,  G. J. O. Beran,  K. Brandhorst,  
 S. T. Brown,  E. F. C. Byrd,  A. K. Chakraborty,  C.-L. Cheng,  
 Siu Hung Chien,  D. M. Chipman,  D. L. Crittenden,  H. Dachsel,  
 R. J. Doerksen,  A. D. Dutoi,  L. Fusti-Molnar,  W. A. Goddard III,  
 A. Golubeva-Zadorozhnaya,  S. R. Gwaltney,  G. Hawkins,  A. Heyden,  
 S. Hirata,  G. Kedziora,  F. J. Keil,  C. Kelley,  Jihan Kim,  R. A. King,  
 R. Z. Khaliullin,  P. P. Korambath,  W. Kurlancheek,  A. M. Lee,  M. S. Lee,  
 S. V. Levchenko,  Ching Yeh Lin,  D. Liotard,  R. C. Lochan,  I. Lotan,  
 P. E. Maslen,  N. Nair,  D. P. O'Neill,  D. Neuhauser,  E. Neuscamman,  
 C. M. Oana,  R. Olson,  B. Peters,  R. Peverati,  P. A. Pieniazek,  
 Y. M. Rhee,  J. Ritchie,  M. A. Rohrdanz,  E. Rosta,  N. J. Russ,  
 H. F. Schaefer III,  N. E. Schultz,  N. Shenvi,  A. C. Simmonett,  A. Sodt,  
 D. Stuck,  K. S. Thanthiriwatte,  V. Vanovschi,  Tao Wang,  A. Warshel,  
 C. F. Williams,  Q. Wu,  X. Xu,  W. Zhang

 Please cite Q-Chem as follows:
 Y. Shao et al., Mol. Phys. 113, 184-215 (2015)
 DOI: 10.1080/00268976.2014.952696

 Q-Chem 5.2.1 for Intel X86 EM64T Linux

 Parts of Q-Chem use Armadillo 8.300.2 (Tropical Shenanigans).
 http://arma.sourceforge.net/

 Q-Chem begins on Mon Feb  7 14:47:09 2022  

Host: 
0

     Scratch files written to /gpfs/fs0/scratch/a/aspuru/rhickman/descriptor_computation/qchem85983//
 Jul1719 |scratch|qcdevops|jenkins|workspace|build_RNUM -1
Processing $rem in /scinet/niagara/software/commercial/qc52/config/preferences:
	 MEM_TOTAL  4000 
NAlpha2: 98
NElect   98
Mult     1

Checking the input file for inconsistencies... 	...done.

--------------------------------------------------------------
User input:
--------------------------------------------------------------
$molecule
0 1
C         4.12677050600000   -0.62107599950000   -0.00062860060000
C         3.02136348660000    0.11741694920000   -0.00103844080000
C         1.66025355860000   -0.38153511030000   -0.00010429820000
C         1.28560589200000   -1.71527928220000    0.00066232820000
N         0.03479838440000   -2.16985525770000    0.00103229520000
C        -1.00340631610000   -1.35753008770000    0.00061206900000
C        -2.31127034550000   -1.98079294150000    0.00029238140000
C        -3.47141145170000   -1.33089174610000   -0.00214486400000
C        -0.77919665120000    0.04873062330000    0.00035726610000
N        -1.65918131330000    1.04975846710000    0.00054051510000
S        -0.86082142370000    2.44428576340000    0.00028714630000
N         0.63438445130000    1.86274197780000   -0.00006330740000
C         0.57602099990000    0.53014086010000    0.00001556310000
H         5.10089768590000   -0.16363586910000   -0.00147502810000
H         4.10743027640000   -1.69744802980000    0.00053435300000
H         3.09027778660000    1.19740266850000   -0.00198780690000
H         2.03438025310000   -2.49509764290000    0.00086152430000
H        -2.27087940660000   -3.06154042270000    0.00177802050000
H        -3.51256085660000   -0.25526788170000   -0.00381367070000
H        -4.40862069470000   -1.86096418780000   -0.00245377050000
$end

$rem
BASIS = 6-31G*
GUI = 2
METHOD = B3LYP
PRINT_ORBITALS false
MOLDEN_FORMAT false
--------------------------------------------------------------
 ----------------------------------------------------------------
             Standard Nuclear Orientation (Angstroms)
    I     Atom           X                Y                Z
 ----------------------------------------------------------------
    1      C       4.0932045046    -0.6610470843    -0.0006526356
    2      C       3.0028940892     0.0995577600    -0.0010407401
    3      C       1.6320118790    -0.3718818840    -0.0000951112
    4      C       1.2305800844    -1.6978105848     0.0006616978
    5      N      -0.0291283977    -2.1271045059     0.0010422630
    6      C      -1.0507632250    -1.2940357936     0.0006437391
    7      C      -2.3709138312    -1.8908333198     0.0003335281
    8      C      -3.5177313966    -1.2176999557    -0.0020822630
    9      C      -0.7982785137     0.1074243870     0.0004014080
   10      N      -1.6579251223     1.1259711211     0.0006064421
   11      S      -0.8316429264     2.5041375221     0.0003582893
   12      N       0.6515480619     1.8925999050    -0.0000170370
   13      C       0.5663593491     0.5614444232     0.0000481016
   14      H       5.0763464470    -0.2233175509    -0.0015061951
   15      H       4.0521912803    -1.7368113401     0.0004988813
   16      H       3.0935441081     1.1779366031    -0.0019792458
   17      H       1.9634979192    -2.4925502740     0.0008431377
   18      H      -2.3522961137    -2.9721750617     0.0018069415
   19      H      -3.5372106125    -0.1414655148    -0.0037388902
   20      H      -4.4654256372    -1.7287905432    -0.0023852839
 ----------------------------------------------------------------
 Molecular Point Group                 C1    NOp =  1
 Largest Abelian Subgroup              C1    NOp =  1
 Nuclear Repulsion Energy =         824.89217682 hartrees
 There are       49 alpha and       49 beta electrons
 Requested basis set is 6-31G(d)
 There are 67 shells and 213 basis functions

 Total QAlloc Memory Limit   4000 MB
 Mega-Array Size       188 MB
 MEM_STATIC part       192 MB
 A cutoff of  1.0D-08 yielded   1565 shell pairs
 There are     17498 function pairs
 Smallest overlap matrix eigenvalue = 4.34E-04

 Scale SEOQF with 1.000000e-01/1.000000e-01/1.000000e+00

 Standard Electronic Orientation quadrupole field applied
 Nucleus-field energy     =     0.0000000332 hartrees
 Guess from superposition of atomic densities
 Warning:  Energy on first SCF cycle will be non-variational
 SAD guess density has 98.000000 electrons

 -----------------------------------------------------------------------
  General SCF calculation program by
  Eric Jon Sundstrom, Paul Horn, Yuezhi Mao, Dmitri Zuev, Alec White,
  David Stuck, Shaama M.S., Shane Yost, Joonho Lee, David Small,
  Daniel Levine, Susi Lehtola, Hugh Burton, Evgeny Epifanovsky,
  Bang C. Huynh
 -----------------------------------------------------------------------
 Exchange:     0.2000 Hartree-Fock + 0.0800 Slater + 0.7200 B88
 Correlation:  0.1900 VWN1RPA + 0.8100 LYP
 Using SG-1 standard quadrature grid
 A restricted SCF calculation will be
 performed using DIIS
 SCF converges when DIIS error is below 1.0e-05
 ---------------------------------------
  Cycle       Energy         DIIS error
 ---------------------------------------
    1    -912.9496549009      5.73e-02  
    2    -909.3247983264      5.97e-03  
    3    -909.1137942464      8.30e-03  
    4    -909.5303823768      1.63e-03  
    5    -909.5429146001      9.05e-04  
    6    -909.5474743343      2.95e-04  
    7    -909.5479036430      1.15e-04  
    8    -909.5479622919      5.13e-05  
    9    -909.5479766757      1.15e-05  
   10    -909.5479774093      4.31e-06  Convergence criterion met
 ---------------------------------------
 SCF time:   CPU 34.69s  wall 34.00s 
 SCF   energy in the final basis set =     -909.5479774093
 Total energy in the final basis set =     -909.5479774093
 
 --------------------------------------------------------------
 
                    Orbital Energies (a.u.)
 --------------------------------------------------------------
 
 Alpha MOs
 -- Occupied --
-88.9871 -14.3765 -14.3732 -14.3377 -10.2491 -10.2473 -10.2448 -10.2288
-10.2148 -10.1992 -10.1920 -10.1911 -10.1859  -8.0431  -6.0083  -6.0024
 -6.0009  -1.0424  -0.9590  -0.9041  -0.8305  -0.8074  -0.7799  -0.7361
 -0.6819  -0.6480  -0.6232  -0.5948  -0.5509  -0.5385  -0.5176  -0.4758
 -0.4714  -0.4668  -0.4554  -0.4302  -0.4079  -0.4024  -0.3940  -0.3837
 -0.3715  -0.3608  -0.3250  -0.3064  -0.3019  -0.2917  -0.2804  -0.2629
 -0.2198
 -- Virtual --
 -0.1033  -0.0357  -0.0075   0.0015   0.0200   0.0729   0.0878   0.1077
  0.1281   0.1313   0.1697   0.1806   0.1815   0.1958   0.2001   0.2378
  0.2451   0.2586   0.2783   0.2908   0.3171   0.3237   0.3374   0.3396
  0.3568   0.3762   0.3896   0.4024   0.4337   0.4442   0.4832   0.4920
  0.5177   0.5226   0.5458   0.5481   0.5569   0.5649   0.5788   0.5864
  0.6016   0.6152   0.6249   0.6287   0.6374   0.6447   0.6631   0.6695
  0.6868   0.6906   0.7012   0.7243   0.7503   0.7775   0.7785   0.8180
  0.8408   0.8517   0.8530   0.8636   0.8655   0.8722   0.8805   0.8857
  0.9098   0.9309   0.9531   0.9676   0.9867   0.9942   1.0118   1.0270
  1.0608   1.0675   1.0809   1.1081   1.1350   1.1420   1.1814   1.1898
  1.2059   1.2125   1.2513   1.2733   1.3134   1.3257   1.3494   1.3564
  1.4089   1.4166   1.4656   1.4745   1.4852   1.4860   1.4933   1.5222
  1.5677   1.6595   1.6652   1.6661   1.6900   1.7641   1.7725   1.7940
  1.8192   1.8211   1.8319   1.8450   1.8671   1.9066   1.9217   1.9545
  1.9928   2.0017   2.0158   2.0445   2.0930   2.1295   2.1326   2.1807
  2.1994   2.2394   2.2447   2.2543   2.2950   2.3118   2.3343   2.3473
  2.3556   2.3997   2.4425   2.4563   2.4818   2.5017   2.5373   2.6153
  2.6235   2.6290   2.6581   2.6941   2.7122   2.7393   2.7488   2.8079
  2.8757   2.9539   2.9762   3.0267   3.1338   3.3295   3.4696   3.8611
  3.9808   4.0096   4.0787   4.0852   4.1535   4.1567   4.2282   4.2683
  4.3012   4.4182   4.5551   4.7523
 --------------------------------------------------------------
 
          Ground-State Mulliken Net Atomic Charges

     Atom                 Charge (a.u.)
  ----------------------------------------
      1 C                    -0.345709
      2 C                    -0.110359
      3 C                     0.162817
      4 C                    -0.049699
      5 N                    -0.502954
      6 C                     0.309739
      7 C                    -0.077570
      8 C                    -0.354171
      9 C                     0.214470
     10 N                    -0.573873
     11 S                     0.600226
     12 N                    -0.557341
     13 C                     0.191405
     14 H                     0.152920
     15 H                     0.149983
     16 H                     0.161317
     17 H                     0.145489
     18 H                     0.145879
     19 H                     0.189467
     20 H                     0.147965
  ----------------------------------------
  Sum of atomic charges =     0.000000

 -----------------------------------------------------------------
                    Cartesian Multipole Moments
 -----------------------------------------------------------------
    Charge (ESU x 10^10)
                 0.0000
    Dipole Moment (Debye)
         X       0.3066      Y       0.8009      Z      -0.0017
       Tot       0.8576
    Quadrupole Moments (Debye-Ang)
        XX     -73.1760     XY      -2.5385     YY     -79.2746
        XZ       0.0043     YZ      -0.0031     ZZ     -82.6441
    Octopole Moments (Debye-Ang^2)
       XXX       9.5963    XXY     -13.3183    XYY      -6.9121
       YYY      24.7031    XXZ      -0.0371    XYZ      -0.0042
       YYZ       0.0075    XZZ      -3.2385    YZZ       6.2767
       ZZZ       0.0090
    Hexadecapole Moments (Debye-Ang^3)
      XXXX   -1955.8061   XXXY      16.6249   XXYY    -528.3714
      XYYY     -33.1708   YYYY   -1244.2043   XXXZ       0.0536
      XXYZ      -0.0443   XYYZ      -0.0120   YYYZ      -0.0083
      XXZZ    -412.1173   XYZZ      -6.0454   YYZZ    -230.9408
      XZZZ      -0.0010   YZZZ      -0.0056   ZZZZ     -83.5097
 -----------------------------------------------------------------
Archival summary:
1\1\nia1977.scinet.local\SP\ProcedureUnspecified\6-31G*\1397\rhickman\MonFeb714:47:442022MonFeb714:47:442022\0\\#,ProcedureUnspecified,6-31G*,\\0,1\S\N,1,1.60432\C,2,1.33388,1,108.745\C,3,1.41659,2,127.551,1,-179.994,0\C,4,1.38536,3,114.369,2,179.971,0\H,5,1.0811,4,120.473,3,-179.987,0\N,5,1.33085,4,125.662,3,0.0228311,0\C,7,1.31823,5,121.987,4,0.00388696,0\C,8,1.42402,7,118.982,5,-0.0285834,0\N,9,1.33283,8,129.623,7,-179.966,0\C,8,1.44878,7,116.479,5,179.965,0\H,11,1.0815,8,113.34,7,0.0770682,0\C,11,1.32978,8,125.263,7,-179.894,0\H,13,1.07641,11,121.448,8,-0.0188658,0\H,13,1.07673,11,121.251,8,179.986,0\C,4,1.44968,3,119.809,2,-0.0317727,0\H,16,1.08218,4,113.783,3,-0.0230926,0\C,16,1.3294,4,126.122,3,179.967,0\H,18,1.07619,16,121.1,4,179.995,0\H,18,1.07655,16,122.716,4,-0.00362016,0\\\@

 Total job time:  34.98s(wall), 34.87s(cpu) 
 Mon Feb  7 14:47:44 2022

        *************************************************************
        *                                                           *
        *  Thank you very much for using Q-Chem.  Have a nice day.  *
        *                                                           *
        *************************************************************


