
Running Job 1 of 1 fragments/C070/conf-3/spe_input.inp
qchem fragments/C070/conf-3/spe_input.inp_172575.0 /gpfs/fs0/scratch/a/aspuru/rhickman/descriptor_computation/qchem172575/ 0
/scinet/niagara/software/commercial/qc52/exe/qcprog.exe_s fragments/C070/conf-3/spe_input.inp_172575.0 /gpfs/fs0/scratch/a/aspuru/rhickman/descriptor_computation/qchem172575/
                  Welcome to Q-Chem
     A Quantum Leap Into The Future Of Chemistry


 Q-Chem 5.2, Q-Chem, Inc., Pleasanton, CA (2019)

 License issued to: SRG Alan Aspuru-Guzik, University of Toronto

 Yihan Shao,  Zhengting Gan,  E. Epifanovsky,  A. T. B. Gilbert,  M. Wormit,  
 J. Kussmann,  A. W. Lange,  A. Behn,  Jia Deng,  Xintian Feng,  D. Ghosh,  
 M. Goldey,  P. R. Horn,  L. D. Jacobson,  I. Kaliman,  T. Kus,  A. Landau,  
 Jie Liu,  E. I. Proynov,  R. M. Richard,  R. P. Steele,  E. J. Sundstrom,  
 H. L. Woodcock III,  P. M. Zimmerman,  D. Zuev,  B. Albrecht,  E. Alguire,  
 S. A. Baeppler,  D. Barton,  Z. Benda,  Y. A. Bernard,  E. J. Berquist,  
 K. B. Bravaya,  H. Burton,  D. Casanova,  Chun-Min Chang,  Yunqing Chen,  
 A. Chien,  K. D. Closser,  M. P. Coons,  S. Coriani,  S. Dasgupta,  
 A. L. Dempwolff,  M. Diedenhofen,  Hainam Do,  R. G. Edgar,  Po-Tung Fang,  
 S. Faraji,  S. Fatehi,  Qingguo Feng,  K. D. Fenk,  J. Fosso-Tande,  
 J. Gayvert,  Qinghui Ge,  A. Ghysels,  G. Gidofalvi,  J. Gomes,  
 J. Gonthier,  A. Gunina,  D. Hait,  M. W. D. Hanson-Heine,  
 P. H. P. Harbach,  A. W. Hauser,  M. F. Herbst,  J. E. Herr,  
 E. G. Hohenstein,  Z. C. Holden,  Kerwin Hui,  B. C. Huynh,  T.-C. Jagau,  
 Hyunjun Ji,  B. Kaduk,  K. Khistyaev,  Jaehoon Kim,  P. Klunzinger,  K. Koh,  
 D. Kosenkov,  L. Koulias,  T. Kowalczyk,  C. M. Krauter,  A. Kunitsa,  
 Ka Un Lao,  A. Laurent,  K. V. Lawler,  Joonho Lee,  D. Lefrancois,  
 S. Lehtola,  D. S. Levine,  Yi-Pei Li,  You-Sheng Lin,  Fenglai Liu,  
 E. Livshits,  A. Luenser,  P. Manohar,  E. Mansoor,  S. F. Manzer,  
 Shan-Ping Mao,  Yuezhi Mao,  N. Mardirossian,  A. V. Marenich,  
 T. Markovich,  L. A. Martinez-Martinez,  S. A. Maurer,  N. J. Mayhall,  
 S. C. McKenzie,  J.-M. Mewes,  P. Morgante,  A. F. Morrison,  
 J. W. Mullinax,  K. Nanda,  T. S. Nguyen-Beck,  R. Olivares-Amaya,  
 J. A. Parkhill,  Zheng Pei,  T. M. Perrine,  F. Plasser,  P. Pokhilko,  
 S. Prager,  A. Prociuk,  E. Ramos,  D. R. Rehn,  F. Rob,  M. Scheurer,  
 M. Schneider,  N. Sergueev,  S. M. Sharada,  S. Sharma,  D. W. Small,  
 T. Stauch,  T. Stein,  Yu-Chuan Su,  A. J. W. Thom,  A. Tkatchenko,  
 T. Tsuchimochi,  N. M. Tubman,  L. Vogt,  M. L. Vidal,  O. Vydrov,  
 M. A. Watson,  J. Wenzel,  M. de Wergifosse,  T. A. Wesolowski,  A. White,  
 J. Witte,  A. Yamada,  Jun Yang,  K. Yao,  S. Yeganeh,  S. R. Yost,  
 Zhi-Qiang You,  A. Zech,  Igor Ying Zhang,  Xing Zhang,  Yan Zhao,  
 Ying Zhu,  B. R. Brooks,  G. K. L. Chan,  C. J. Cramer,  M. S. Gordon,  
 W. J. Hehre,  A. Klamt,  M. W. Schmidt,  C. D. Sherrill,  D. G. Truhlar,  
 A. Aspuru-Guzik,  R. Baer,  A. T. Bell,  N. A. Besley,  Jeng-Da Chai,  
 A. E. DePrince, III,  R. A. DiStasio Jr.,  A. Dreuw,  B. D. Dunietz,  
 T. R. Furlani,  Chao-Ping Hsu,  Yousung Jung,  Jing Kong,  D. S. Lambrecht,  
 WanZhen Liang,  C. Ochsenfeld,  V. A. Rassolov,  L. V. Slipchenko,  
 J. E. Subotnik,  T. Van Voorhis,  J. M. Herbert,  A. I. Krylov,  
 P. M. W. Gill,  M. Head-Gordon

 Contributors to earlier versions of Q-Chem not listed above: 
 R. D. Adamson,  B. Austin,  J. Baker,  G. J. O. Beran,  K. Brandhorst,  
 S. T. Brown,  E. F. C. Byrd,  A. K. Chakraborty,  C.-L. Cheng,  
 Siu Hung Chien,  D. M. Chipman,  D. L. Crittenden,  H. Dachsel,  
 R. J. Doerksen,  A. D. Dutoi,  L. Fusti-Molnar,  W. A. Goddard III,  
 A. Golubeva-Zadorozhnaya,  S. R. Gwaltney,  G. Hawkins,  A. Heyden,  
 S. Hirata,  G. Kedziora,  F. J. Keil,  C. Kelley,  Jihan Kim,  R. A. King,  
 R. Z. Khaliullin,  P. P. Korambath,  W. Kurlancheek,  A. M. Lee,  M. S. Lee,  
 S. V. Levchenko,  Ching Yeh Lin,  D. Liotard,  R. C. Lochan,  I. Lotan,  
 P. E. Maslen,  N. Nair,  D. P. O'Neill,  D. Neuhauser,  E. Neuscamman,  
 C. M. Oana,  R. Olson,  B. Peters,  R. Peverati,  P. A. Pieniazek,  
 Y. M. Rhee,  J. Ritchie,  M. A. Rohrdanz,  E. Rosta,  N. J. Russ,  
 H. F. Schaefer III,  N. E. Schultz,  N. Shenvi,  A. C. Simmonett,  A. Sodt,  
 D. Stuck,  K. S. Thanthiriwatte,  V. Vanovschi,  Tao Wang,  A. Warshel,  
 C. F. Williams,  Q. Wu,  X. Xu,  W. Zhang

 Please cite Q-Chem as follows:
 Y. Shao et al., Mol. Phys. 113, 184-215 (2015)
 DOI: 10.1080/00268976.2014.952696

 Q-Chem 5.2.1 for Intel X86 EM64T Linux

 Parts of Q-Chem use Armadillo 8.300.2 (Tropical Shenanigans).
 http://arma.sourceforge.net/

 Q-Chem begins on Mon Feb  7 18:47:13 2022  

Host: 
0

     Scratch files written to /gpfs/fs0/scratch/a/aspuru/rhickman/descriptor_computation/qchem172575//
 Jul1719 |scratch|qcdevops|jenkins|workspace|build_RNUM -1
Processing $rem in /scinet/niagara/software/commercial/qc52/config/preferences:
	 MEM_TOTAL  4000 
NAlpha2: 72
NElect   72
Mult     1

Checking the input file for inconsistencies... 	...done.

--------------------------------------------------------------
User input:
--------------------------------------------------------------
$molecule
0 1
C         2.19764798110000   -1.82958944400000    0.35167682640000
C         1.95706634530000   -0.75659674910000   -0.38814242770000
C         0.82070491160000    0.14378424220000   -0.23672301630000
C         1.00912222270000    1.54740087380000   -0.36768890100000
C        -0.10183002360000    2.27250086910000   -0.09666614460000
S        -1.43319330450000    1.27110944930000    0.31505104850000
C        -0.47544304480000   -0.17233120930000    0.11155744720000
C        -1.17607886410000   -1.42964258160000    0.23916655550000
C        -0.86458199870000   -2.56668111740000   -0.37336877220000
H         3.08644194530000   -2.42106202470000    0.21301680310000
H         1.51651930410000   -2.15420779080000    1.11988395470000
H         2.68284393820000   -0.43796335140000   -1.12724135110000
H         1.95434481010000    1.98602435860000   -0.63634268890000
H        -0.22657522720000    3.33699171080000   -0.11482268910000
H        -2.07201232000000   -1.37829986050000    0.84653560880000
H        -0.00595917880000   -2.65271328540000   -1.01614924600000
H        -1.46695131470000   -3.44932719410000   -0.24719148390000
$end

$rem
BASIS = 6-31G*
GUI = 2
METHOD = B3LYP
PRINT_ORBITALS false
MOLDEN_FORMAT false
--------------------------------------------------------------
 ----------------------------------------------------------------
             Standard Nuclear Orientation (Angstroms)
    I     Atom           X                Y                Z
 ----------------------------------------------------------------
    1      C       2.4953113066     1.1865635995     0.5708519839
    2      C       1.4442514371     1.4866568714    -0.1786428823
    3      C       0.1524790512     0.8122143639    -0.1414611285
    4      C      -1.0450488641     1.5737180151    -0.2354391887
    5      C      -2.1707754916     0.8378026784    -0.0785748886
    6      S      -1.8181493096    -0.8223956640     0.1748422543
    7      C      -0.1028486197    -0.5276678955     0.0604078788
    8      C       0.7514375584    -1.6925106791     0.0970540010
    9      C       1.9366287170    -1.8146286911    -0.4907347073
   10      H       3.4035913778     1.7625424583     0.5229271143
   11      H       2.4853966955     0.3566398278     1.2568430707
   12      H       1.4769222464     2.3515373816    -0.8309172851
   13      H      -1.0480074898     2.6379428473    -0.3949005065
   14      H      -3.1915047859     1.1645394750    -0.0982357971
   15      H       0.3163419852    -2.5456658918     0.6040530390
   16      H       2.3892663014    -1.0058610860    -1.0373749879
   17      H       2.4897720529    -2.7362339645    -0.4406371259
 ----------------------------------------------------------------
 Molecular Point Group                 C1    NOp =  1
 Largest Abelian Subgroup              C1    NOp =  1
 Nuclear Repulsion Energy =         477.93271966 hartrees
 There are       36 alpha and       36 beta electrons
 Requested basis set is 6-31G(d)
 There are 53 shells and 155 basis functions

 Total QAlloc Memory Limit   4000 MB
 Mega-Array Size       188 MB
 MEM_STATIC part       192 MB
 A cutoff of  1.0D-08 yielded   1161 shell pairs
 There are     10807 function pairs
 Smallest overlap matrix eigenvalue = 8.79E-04

 Scale SEOQF with 1.000000e-01/1.000000e-01/1.000000e+00

 Standard Electronic Orientation quadrupole field applied
 Nucleus-field energy     =     0.0000000068 hartrees
 Guess from superposition of atomic densities
 Warning:  Energy on first SCF cycle will be non-variational
 SAD guess density has 72.000000 electrons

 -----------------------------------------------------------------------
  General SCF calculation program by
  Eric Jon Sundstrom, Paul Horn, Yuezhi Mao, Dmitri Zuev, Alec White,
  David Stuck, Shaama M.S., Shane Yost, Joonho Lee, David Small,
  Daniel Levine, Susi Lehtola, Hugh Burton, Evgeny Epifanovsky,
  Bang C. Huynh
 -----------------------------------------------------------------------
 Exchange:     0.2000 Hartree-Fock + 0.0800 Slater + 0.7200 B88
 Correlation:  0.1900 VWN1RPA + 0.8100 LYP
 Using SG-1 standard quadrature grid
 A restricted SCF calculation will be
 performed using DIIS
 SCF converges when DIIS error is below 1.0e-05
 ---------------------------------------
  Cycle       Energy         DIIS error
 ---------------------------------------
    1    -709.8479924622      6.42e-02  
    2    -707.6198754426      7.15e-03  
    3    -707.5124651083      8.96e-03  
    4    -707.7797994265      1.91e-03  
    5    -707.7916561756      6.22e-04  
    6    -707.7926550972      2.55e-04  
    7    -707.7928610436      6.55e-05  
    8    -707.7928730319      1.98e-05  
    9    -707.7928742275      4.14e-06  Convergence criterion met
 ---------------------------------------
 SCF time:   CPU 16.89s  wall 17.00s 
 SCF   energy in the final basis set =     -707.7928742275
 Total energy in the final basis set =     -707.7928742275
 
 --------------------------------------------------------------
 
                    Orbital Energies (a.u.)
 --------------------------------------------------------------
 
 Alpha MOs
 -- Occupied --
-88.9048 -10.2163 -10.2105 -10.1956 -10.1947 -10.1911 -10.1887 -10.1773
-10.1771  -7.9668  -5.9307  -5.9270  -5.9240  -0.8881  -0.7931  -0.7852
 -0.7235  -0.7053  -0.6129  -0.5885  -0.5665  -0.5047  -0.4956  -0.4597
 -0.4542  -0.4261  -0.3983  -0.3842  -0.3802  -0.3675  -0.3602  -0.3369
 -0.2923  -0.2893  -0.2382  -0.2039
 -- Virtual --
 -0.0430   0.0193   0.0281   0.0398   0.0993   0.1134   0.1282   0.1360
  0.1448   0.1539   0.1644   0.1788   0.2021   0.2125   0.2512   0.2850
  0.2995   0.3272   0.3438   0.3545   0.3637   0.3700   0.4292   0.4399
  0.4686   0.4793   0.5095   0.5392   0.5434   0.5629   0.5679   0.5959
  0.6023   0.6141   0.6330   0.6497   0.6662   0.6734   0.6847   0.7134
  0.7342   0.7839   0.7872   0.8143   0.8437   0.8490   0.8574   0.8632
  0.8739   0.8854   0.8918   0.9130   0.9460   0.9570   0.9640   0.9904
  1.0122   1.0268   1.0437   1.0634   1.1020   1.1133   1.1460   1.1634
  1.2270   1.2568   1.2931   1.3400   1.3780   1.4132   1.4618   1.4834
  1.4907   1.5237   1.6009   1.6413   1.6915   1.7205   1.7319   1.7919
  1.8787   1.8899   1.9265   1.9581   1.9852   2.0065   2.0367   2.0862
  2.1247   2.1567   2.1703   2.2269   2.2456   2.2602   2.2855   2.3215
  2.3916   2.4061   2.4277   2.5005   2.5774   2.5917   2.6336   2.6803
  2.7661   2.7886   2.8283   2.9226   3.0949   3.2445   3.9583   4.1031
  4.1239   4.1498   4.1719   4.2586   4.3119   4.4233   4.6540
 --------------------------------------------------------------
 
          Ground-State Mulliken Net Atomic Charges

     Atom                 Charge (a.u.)
  ----------------------------------------
      1 C                    -0.328020
      2 C                    -0.135233
      3 C                     0.156334
      4 C                    -0.125653
      5 C                    -0.349040
      6 S                     0.247786
      7 C                    -0.212328
      8 C                    -0.095616
      9 C                    -0.332884
     10 H                     0.140649
     11 H                     0.155748
     12 H                     0.131460
     13 H                     0.139960
     14 H                     0.171907
     15 H                     0.135878
     16 H                     0.157074
     17 H                     0.141978
  ----------------------------------------
  Sum of atomic charges =     0.000000

 -----------------------------------------------------------------
                    Cartesian Multipole Moments
 -----------------------------------------------------------------
    Charge (ESU x 10^10)
                 0.0000
    Dipole Moment (Debye)
         X       0.1452      Y       0.5997      Z      -0.1017
       Tot       0.6253
    Quadrupole Moments (Debye-Ang)
        XX     -54.7575     XY      -1.9267     YY     -55.5608
        XZ      -0.1888     YZ      -2.3989     ZZ     -62.6297
    Octopole Moments (Debye-Ang^2)
       XXX      -8.6290    XXY       6.7380    XYY       2.1310
       YYY      -0.2103    XXZ      -0.2020    XYZ       0.2367
       YYZ      -1.7533    XZZ       1.8359    YZZ      -0.5806
       ZZZ       0.8666
    Hexadecapole Moments (Debye-Ang^3)
      XXXX    -986.1643   XXXY     -10.0701   XXYY    -273.5192
      XYYY     -12.1573   YYYY    -639.0361   XXXZ       2.1865
      XXYZ       1.8525   XYYZ      -4.0336   YYYZ     -19.6323
      XXZZ    -204.0807   XYZZ       1.9445   YYZZ    -138.8906
      XZZZ      -0.5682   YZZZ      -3.3885   ZZZZ    -112.8128
 -----------------------------------------------------------------
Archival summary:
1\1\nia1977.scinet.local\SP\ProcedureUnspecified\6-31G*\188\rhickman\MonFeb718:47:302022MonFeb718:47:302022\0\\#,ProcedureUnspecified,6-31G*,\\0,1\S\C,1,1.71605\H,2,1.07193,1,119.556\C,2,1.35405,1,111.844,3,-179.828,0\H,4,1.07611,2,123.53,1,-179.323,0\C,4,1.42225,2,113.664,1,-0.595475,0\C,6,1.37885,4,111.966,2,1.40574,0\C,7,1.44499,6,132.655,4,173.468,0\H,8,1.08362,7,114.152,6,160.02,0\C,8,1.32857,7,126.177,6,-24.4063,0\H,10,1.07601,8,122.069,7,2.25255,0\H,10,1.07603,8,121.112,7,-177.685,0\C,6,1.45771,4,119.784,2,-174.9,0\H,13,1.08377,6,114.286,4,-35.2584,0\C,13,1.32534,6,125.703,4,139.567,0\H,15,1.07658,13,121.518,6,-176.87,0\H,15,1.07678,13,121.836,6,3.14885,0\\\@

 Total job time:  17.09s(wall), 17.02s(cpu) 
 Mon Feb  7 18:47:30 2022

        *************************************************************
        *                                                           *
        *  Thank you very much for using Q-Chem.  Have a nice day.  *
        *                                                           *
        *************************************************************


