32
 energy: -39.101572931634 gnorm: 0.000046001962 xtb: 6.4.1 (23d549d)
C        -2.83049642730000    2.39749707890000   -0.20406078870000
C        -2.55342432560000    1.16058644150000   -0.59386378170000
C        -1.27265477500000    0.48602333110000   -0.38654297190000
C        -0.08901568170000    1.21904279650000   -0.42470961670000
C         1.15836435750000    0.64131526440000   -0.25639957750000
C         2.38055288500000    1.51771409450000   -0.22772989830000
C         2.79126089570000    1.80512174110000    1.21743797400000
C         1.22756387550000   -0.73581772160000   -0.02896954380000
C         2.49431563280000   -1.46309770870000    0.15902703410000
C         3.45322817420000   -1.55949509010000   -0.74650691780000
C         0.04648525110000   -1.46822868550000    0.03189964420000
C        -1.19979542680000   -0.89422249030000   -0.15533283940000
C        -2.43204529260000   -1.74702464250000   -0.03634208030000
C        -3.15980568110000   -1.48437207910000    1.28308221120000
H        -3.78957043290000    2.84918967260000   -0.39372014330000
H        -2.11991982410000    3.00123220080000    0.33553090340000
H        -3.31723301630000    0.58490544960000   -1.10098787850000
H        -0.14728606330000    2.28153044900000   -0.61388865120000
H         2.16311914620000    2.45958048380000   -0.73536231500000
H         3.21207419920000    1.03788825780000   -0.74241466360000
H         1.97376463960000    2.27791972430000    1.75769019010000
H         3.65473532080000    2.46606176440000    1.24418268200000
H         3.04842118410000    0.87838009920000    1.72549507710000
H         2.58525816700000   -1.99307544610000    1.10073464980000
H         3.37500209440000   -1.08318868250000   -1.71028076380000
H         4.34872647910000   -2.13118979390000   -0.56865910420000
H         0.11122055910000   -2.53213617530000    0.21861066530000
H        -2.14671380060000   -2.80006279210000   -0.08438122820000
H        -3.11181056720000   -1.55047560260000   -0.86877174220000
H        -2.50278589260000   -1.69921914690000    2.12313661450000
H        -4.04260850470000   -2.11504647560000    1.36304374400000
H        -3.46758687150000   -0.44319132680000    1.34749503780000
