
Running Job 1 of 1 fragments/C138/conf-2/spe_input.inp
qchem fragments/C138/conf-2/spe_input.inp_159874.0 /gpfs/fs0/scratch/a/aspuru/rhickman/descriptor_computation/qchem159874/ 0
/scinet/niagara/software/commercial/qc52/exe/qcprog.exe_s fragments/C138/conf-2/spe_input.inp_159874.0 /gpfs/fs0/scratch/a/aspuru/rhickman/descriptor_computation/qchem159874/
                  Welcome to Q-Chem
     A Quantum Leap Into The Future Of Chemistry


 Q-Chem 5.2, Q-Chem, Inc., Pleasanton, CA (2019)

 License issued to: SRG Alan Aspuru-Guzik, University of Toronto

 Yihan Shao,  Zhengting Gan,  E. Epifanovsky,  A. T. B. Gilbert,  M. Wormit,  
 J. Kussmann,  A. W. Lange,  A. Behn,  Jia Deng,  Xintian Feng,  D. Ghosh,  
 M. Goldey,  P. R. Horn,  L. D. Jacobson,  I. Kaliman,  T. Kus,  A. Landau,  
 Jie Liu,  E. I. Proynov,  R. M. Richard,  R. P. Steele,  E. J. Sundstrom,  
 H. L. Woodcock III,  P. M. Zimmerman,  D. Zuev,  B. Albrecht,  E. Alguire,  
 S. A. Baeppler,  D. Barton,  Z. Benda,  Y. A. Bernard,  E. J. Berquist,  
 K. B. Bravaya,  H. Burton,  D. Casanova,  Chun-Min Chang,  Yunqing Chen,  
 A. Chien,  K. D. Closser,  M. P. Coons,  S. Coriani,  S. Dasgupta,  
 A. L. Dempwolff,  M. Diedenhofen,  Hainam Do,  R. G. Edgar,  Po-Tung Fang,  
 S. Faraji,  S. Fatehi,  Qingguo Feng,  K. D. Fenk,  J. Fosso-Tande,  
 J. Gayvert,  Qinghui Ge,  A. Ghysels,  G. Gidofalvi,  J. Gomes,  
 J. Gonthier,  A. Gunina,  D. Hait,  M. W. D. Hanson-Heine,  
 P. H. P. Harbach,  A. W. Hauser,  M. F. Herbst,  J. E. Herr,  
 E. G. Hohenstein,  Z. C. Holden,  Kerwin Hui,  B. C. Huynh,  T.-C. Jagau,  
 Hyunjun Ji,  B. Kaduk,  K. Khistyaev,  Jaehoon Kim,  P. Klunzinger,  K. Koh,  
 D. Kosenkov,  L. Koulias,  T. Kowalczyk,  C. M. Krauter,  A. Kunitsa,  
 Ka Un Lao,  A. Laurent,  K. V. Lawler,  Joonho Lee,  D. Lefrancois,  
 S. Lehtola,  D. S. Levine,  Yi-Pei Li,  You-Sheng Lin,  Fenglai Liu,  
 E. Livshits,  A. Luenser,  P. Manohar,  E. Mansoor,  S. F. Manzer,  
 Shan-Ping Mao,  Yuezhi Mao,  N. Mardirossian,  A. V. Marenich,  
 T. Markovich,  L. A. Martinez-Martinez,  S. A. Maurer,  N. J. Mayhall,  
 S. C. McKenzie,  J.-M. Mewes,  P. Morgante,  A. F. Morrison,  
 J. W. Mullinax,  K. Nanda,  T. S. Nguyen-Beck,  R. Olivares-Amaya,  
 J. A. Parkhill,  Zheng Pei,  T. M. Perrine,  F. Plasser,  P. Pokhilko,  
 S. Prager,  A. Prociuk,  E. Ramos,  D. R. Rehn,  F. Rob,  M. Scheurer,  
 M. Schneider,  N. Sergueev,  S. M. Sharada,  S. Sharma,  D. W. Small,  
 T. Stauch,  T. Stein,  Yu-Chuan Su,  A. J. W. Thom,  A. Tkatchenko,  
 T. Tsuchimochi,  N. M. Tubman,  L. Vogt,  M. L. Vidal,  O. Vydrov,  
 M. A. Watson,  J. Wenzel,  M. de Wergifosse,  T. A. Wesolowski,  A. White,  
 J. Witte,  A. Yamada,  Jun Yang,  K. Yao,  S. Yeganeh,  S. R. Yost,  
 Zhi-Qiang You,  A. Zech,  Igor Ying Zhang,  Xing Zhang,  Yan Zhao,  
 Ying Zhu,  B. R. Brooks,  G. K. L. Chan,  C. J. Cramer,  M. S. Gordon,  
 W. J. Hehre,  A. Klamt,  M. W. Schmidt,  C. D. Sherrill,  D. G. Truhlar,  
 A. Aspuru-Guzik,  R. Baer,  A. T. Bell,  N. A. Besley,  Jeng-Da Chai,  
 A. E. DePrince, III,  R. A. DiStasio Jr.,  A. Dreuw,  B. D. Dunietz,  
 T. R. Furlani,  Chao-Ping Hsu,  Yousung Jung,  Jing Kong,  D. S. Lambrecht,  
 WanZhen Liang,  C. Ochsenfeld,  V. A. Rassolov,  L. V. Slipchenko,  
 J. E. Subotnik,  T. Van Voorhis,  J. M. Herbert,  A. I. Krylov,  
 P. M. W. Gill,  M. Head-Gordon

 Contributors to earlier versions of Q-Chem not listed above: 
 R. D. Adamson,  B. Austin,  J. Baker,  G. J. O. Beran,  K. Brandhorst,  
 S. T. Brown,  E. F. C. Byrd,  A. K. Chakraborty,  C.-L. Cheng,  
 Siu Hung Chien,  D. M. Chipman,  D. L. Crittenden,  H. Dachsel,  
 R. J. Doerksen,  A. D. Dutoi,  L. Fusti-Molnar,  W. A. Goddard III,  
 A. Golubeva-Zadorozhnaya,  S. R. Gwaltney,  G. Hawkins,  A. Heyden,  
 S. Hirata,  G. Kedziora,  F. J. Keil,  C. Kelley,  Jihan Kim,  R. A. King,  
 R. Z. Khaliullin,  P. P. Korambath,  W. Kurlancheek,  A. M. Lee,  M. S. Lee,  
 S. V. Levchenko,  Ching Yeh Lin,  D. Liotard,  R. C. Lochan,  I. Lotan,  
 P. E. Maslen,  N. Nair,  D. P. O'Neill,  D. Neuhauser,  E. Neuscamman,  
 C. M. Oana,  R. Olson,  B. Peters,  R. Peverati,  P. A. Pieniazek,  
 Y. M. Rhee,  J. Ritchie,  M. A. Rohrdanz,  E. Rosta,  N. J. Russ,  
 H. F. Schaefer III,  N. E. Schultz,  N. Shenvi,  A. C. Simmonett,  A. Sodt,  
 D. Stuck,  K. S. Thanthiriwatte,  V. Vanovschi,  Tao Wang,  A. Warshel,  
 C. F. Williams,  Q. Wu,  X. Xu,  W. Zhang

 Please cite Q-Chem as follows:
 Y. Shao et al., Mol. Phys. 113, 184-215 (2015)
 DOI: 10.1080/00268976.2014.952696

 Q-Chem 5.2.1 for Intel X86 EM64T Linux

 Parts of Q-Chem use Armadillo 8.300.2 (Tropical Shenanigans).
 http://arma.sourceforge.net/

 Q-Chem begins on Mon Feb  7 18:06:31 2022  

Host: 
0

     Scratch files written to /gpfs/fs0/scratch/a/aspuru/rhickman/descriptor_computation/qchem159874//
 Jul1719 |scratch|qcdevops|jenkins|workspace|build_RNUM -1
Processing $rem in /scinet/niagara/software/commercial/qc52/config/preferences:
	 MEM_TOTAL  4000 
NAlpha2: 98
NElect   98
Mult     1

Checking the input file for inconsistencies... 	...done.

--------------------------------------------------------------
User input:
--------------------------------------------------------------
$molecule
0 1
C         3.92689141950000   -0.95383738290000   -0.27466906160000
C         3.08276213620000   -0.08159653020000    0.25799748220000
C         1.62544727760000   -0.14384400760000    0.12303947450000
C         1.00166976960000   -1.38177693010000    0.14217635370000
C        -0.38083164350000   -1.43756129740000    0.05744570870000
N        -1.22973625350000   -2.51893462790000    0.03335910070000
C        -2.41638448990000   -2.02084725810000   -0.08610892440000
N        -2.43568380700000   -0.65446060040000   -0.13008843100000
C        -1.13121569780000   -0.24463375890000   -0.03923965480000
C        -0.53649256900000    1.01587397250000   -0.07376815570000
C        -1.32400976580000    2.23578106440000   -0.23699485110000
C        -2.50722160930000    2.46367480070000    0.32053362720000
C         0.86509957820000    1.04953302780000    0.00755404870000
N         1.51061073240000    2.26769804040000   -0.09542893760000
H         4.98985230930000   -0.88267045790000   -0.11837046440000
H         3.58676148770000   -1.76440537780000   -0.89631143970000
H         3.48125699590000    0.72801081470000    0.86133396920000
H         1.57774300050000   -2.28600955170000    0.24709811010000
H        -3.31534673850000   -2.60453290040000   -0.13906617500000
H        -3.23512568550000   -0.06125840780000   -0.27270140010000
H        -0.88885040980000    2.99098353870000   -0.88137317320000
H        -2.96255284710000    1.76806091550000    1.00654979410000
H        -3.05052503970000    3.37591298030000    0.14067746950000
H         0.99238700620000    3.07533647670000    0.20668936880000
H         2.48441786850000    2.27941508370000    0.15674789530000
$end

$rem
BASIS = 6-31G*
GUI = 2
METHOD = B3LYP
PRINT_ORBITALS false
MOLDEN_FORMAT false
--------------------------------------------------------------
 ----------------------------------------------------------------
             Standard Nuclear Orientation (Angstroms)
    I     Atom           X                Y                Z
 ----------------------------------------------------------------
    1      C       3.9511293931    -0.8063789146    -0.2553356512
    2      C       3.0655551193     0.0315289038     0.2650110529
    3      C       1.6131497893    -0.1004689093     0.1273508038
    4      C       1.0479385105    -1.3659483274     0.1596087168
    5      C      -0.3301845124    -1.4874008805     0.0722728925
    6      N      -1.1274763603    -2.6075505182     0.0589319873
    7      C      -2.3357818741    -2.1670100175    -0.0692067128
    8      N      -2.4188793418    -0.8036326441    -0.1293407918
    9      C      -1.1352909704    -0.3321332237    -0.0402465861
   10      C      -0.6001137701     0.9543544457    -0.0882299074
   11      C      -1.4433812722     2.1340548033    -0.2676918484
   12      C      -2.6375818188     2.3127767559     0.2843111807
   13      C       0.7981243948     1.0545617469    -0.0039962381
   14      N       1.3862148964     2.3003357821    -0.1198097036
   15      H       5.0091349180    -0.6836912113    -0.0973740331
   16      H       3.6511200943    -1.6391845029    -0.8681793212
   17      H       3.4239634491     0.8658946802     0.8596994948
   18      H       1.6653908258    -2.2409246214     0.2765475880
   19      H      -3.2062841843    -2.7927330828    -0.1174031592
   20      H      -3.2447883939    -0.2502247853    -0.2808287347
   21      H      -1.0421666381     2.9012376581    -0.9198997515
   22      H      -3.0618562567     1.6046542064     0.9774035633
   23      H      -3.2224566777     3.1964095913     0.0924264162
   24      H       0.8298829500     3.0862890302     0.1715378594
   25      H       2.3576676199     2.3605864038     0.1345134199
 ----------------------------------------------------------------
 Molecular Point Group                 C1    NOp =  1
 Largest Abelian Subgroup              C1    NOp =  1
 Nuclear Repulsion Energy =         834.93309421 hartrees
 There are       49 alpha and       49 beta electrons
 Requested basis set is 6-31G(d)
 There are 78 shells and 232 basis functions

 Total QAlloc Memory Limit   4000 MB
 Mega-Array Size       188 MB
 MEM_STATIC part       192 MB
 A cutoff of  1.0D-08 yielded   2083 shell pairs
 There are     20247 function pairs
 Smallest overlap matrix eigenvalue = 2.38E-04

 Scale SEOQF with 1.000000e-01/1.000000e-01/1.000000e+00

 Standard Electronic Orientation quadrupole field applied
 Nucleus-field energy     =     0.0000000287 hartrees
 Guess from superposition of atomic densities
 Warning:  Energy on first SCF cycle will be non-variational
 SAD guess density has 98.000000 electrons

 -----------------------------------------------------------------------
  General SCF calculation program by
  Eric Jon Sundstrom, Paul Horn, Yuezhi Mao, Dmitri Zuev, Alec White,
  David Stuck, Shaama M.S., Shane Yost, Joonho Lee, David Small,
  Daniel Levine, Susi Lehtola, Hugh Burton, Evgeny Epifanovsky,
  Bang C. Huynh
 -----------------------------------------------------------------------
 Exchange:     0.2000 Hartree-Fock + 0.0800 Slater + 0.7200 B88
 Correlation:  0.1900 VWN1RPA + 0.8100 LYP
 Using SG-1 standard quadrature grid
 A restricted SCF calculation will be
 performed using DIIS
 SCF converges when DIIS error is below 1.0e-05
 ---------------------------------------
  Cycle       Energy         DIIS error
 ---------------------------------------
    1    -593.6982731674      5.58e-02  
    2    -589.7863888723      5.58e-03  
    3    -589.7071767797      6.66e-03  
    4    -589.9808352996      2.08e-03  
    5    -590.0081000411      3.82e-04  
    6    -590.0088264888      1.90e-04  
    7    -590.0090582734      4.00e-05  
    8    -590.0090665661      2.13e-05  
    9    -590.0090696500      2.69e-06  Convergence criterion met
 ---------------------------------------
 SCF time:   CPU 39.84s  wall 40.00s 
 SCF   energy in the final basis set =     -590.0090696500
 Total energy in the final basis set =     -590.0090696500
 
 --------------------------------------------------------------
 
                    Orbital Energies (a.u.)
 --------------------------------------------------------------
 
 Alpha MOs
 -- Occupied --
-14.3833 -14.3423 -14.3036 -10.2392 -10.2269 -10.2163 -10.1994 -10.1904
-10.1877 -10.1877 -10.1870 -10.1830 -10.1786 -10.1736  -1.0154  -0.9272
 -0.8762  -0.8352  -0.8034  -0.7681  -0.7182  -0.7154  -0.6477  -0.6143
 -0.6065  -0.5912  -0.5626  -0.5370  -0.5195  -0.5028  -0.4791  -0.4677
 -0.4468  -0.4391  -0.4357  -0.4240  -0.4103  -0.4044  -0.3852  -0.3657
 -0.3541  -0.3411  -0.3145  -0.2959  -0.2810  -0.2664  -0.2581  -0.2071
 -0.1854
 -- Virtual --
 -0.0300   0.0022   0.0251   0.0636   0.0770   0.0846   0.0899   0.1163
  0.1345   0.1404   0.1472   0.1612   0.1657   0.1788   0.1984   0.2036
  0.2144   0.2369   0.2522   0.2862   0.2967   0.2993   0.3312   0.3367
  0.3469   0.3673   0.3727   0.3936   0.4202   0.4545   0.4868   0.4986
  0.5050   0.5198   0.5381   0.5501   0.5576   0.5676   0.5718   0.5811
  0.5841   0.5945   0.6022   0.6224   0.6269   0.6395   0.6532   0.6683
  0.6726   0.6784   0.6966   0.6997   0.7059   0.7220   0.7283   0.7389
  0.7632   0.7979   0.8119   0.8191   0.8321   0.8337   0.8503   0.8597
  0.8629   0.8644   0.8724   0.8954   0.9046   0.9061   0.9306   0.9438
  0.9594   0.9708   0.9724   0.9897   1.0150   1.0273   1.0380   1.0403
  1.0844   1.1057   1.1319   1.1491   1.1668   1.1843   1.2056   1.2148
  1.2387   1.2666   1.2855   1.3061   1.3459   1.3508   1.3695   1.3802
  1.4061   1.4315   1.4733   1.4801   1.4870   1.5090   1.5236   1.5722
  1.5954   1.6277   1.6318   1.6673   1.6927   1.7083   1.7697   1.7723
  1.7943   1.8117   1.8448   1.8572   1.8779   1.9017   1.9422   1.9517
  1.9725   1.9907   2.0030   2.0086   2.0591   2.0661   2.0843   2.1266
  2.1462   2.1622   2.1764   2.1966   2.2063   2.2307   2.2432   2.2595
  2.2708   2.2868   2.3054   2.3235   2.3412   2.3718   2.3936   2.4240
  2.4606   2.4767   2.4856   2.5125   2.5403   2.5683   2.5886   2.6167
  2.6541   2.6645   2.7108   2.7395   2.7655   2.7682   2.7944   2.8041
  2.8391   2.9568   2.9808   3.0266   3.0617   3.1168   3.1502   3.3424
  3.5066   3.8940   4.0506   4.1025   4.1253   4.1300   4.1500   4.2010
  4.2241   4.2554   4.3073   4.3686   4.4859   4.5223   4.8518
 --------------------------------------------------------------
 
          Ground-State Mulliken Net Atomic Charges

     Atom                 Charge (a.u.)
  ----------------------------------------
      1 C                    -0.336512
      2 C                    -0.149636
      3 C                     0.147459
      4 C                    -0.259641
      5 C                     0.247671
      6 N                    -0.496652
      7 C                     0.218877
      8 N                    -0.691193
      9 C                     0.243657
     10 C                     0.133032
     11 C                    -0.144731
     12 C                    -0.364012
     13 C                     0.153685
     14 N                    -0.811787
     15 H                     0.137489
     16 H                     0.147800
     17 H                     0.119187
     18 H                     0.140583
     19 H                     0.153234
     20 H                     0.329069
     21 H                     0.143030
     22 H                     0.141163
     23 H                     0.144671
     24 H                     0.326360
     25 H                     0.327197
  ----------------------------------------
  Sum of atomic charges =     0.000000

 -----------------------------------------------------------------
                    Cartesian Multipole Moments
 -----------------------------------------------------------------
    Charge (ESU x 10^10)
                 0.0000
    Dipole Moment (Debye)
         X      -1.4838      Y       3.4588      Z       0.3883
       Tot       3.7836
    Quadrupole Moments (Debye-Ang)
        XX     -63.4019     XY       2.0199     YY     -80.7755
        XZ       2.4589     YZ       2.9204     ZZ     -84.7428
    Octopole Moments (Debye-Ang^2)
       XXX     -33.2654    XXY      -4.9693    XYY       6.1026
       YYY      53.2189    XXZ       2.3042    XYZ       6.6378
       YYZ       0.2005    XZZ      -3.4983    YZZ      -0.6597
       ZZZ      -0.0636
    Hexadecapole Moments (Debye-Ang^3)
      XXXX   -1924.7251   XXXY      69.5916   XXYY    -522.5488
      XYYY      14.8996   YYYY   -1379.7188   XXXZ      14.8297
      XXYZ      27.0185   XYYZ      15.3975   YYYZ      11.5125
      XXZZ    -404.6440   XYZZ       3.7176   YYZZ    -261.4255
      XZZZ       1.2898   YZZZ       2.3783   ZZZZ    -112.7341
 -----------------------------------------------------------------
Archival summary:
1\1\nia1977.scinet.local\SP\ProcedureUnspecified\6-31G*\31111\rhickman\MonFeb718:07:112022MonFeb718:07:112022\0\\#,ProcedureUnspecified,6-31G*,\\0,1\C\N,1,1.37035\H,2,1.00565,1,126.137\C,2,1.36723,1,106.458,3,175.729,0\H,4,1.07314,2,122.016,1,179.982,0\N,4,1.29248,2,113.645,1,0.4711,0\C,6,1.37499,4,105.389,2,-0.726622,0\C,7,1.38622,6,130.425,4,-178.524,0\H,8,1.07727,7,120.364,6,-2.7604,0\C,8,1.38634,7,118.936,6,178.822,0\C,1,1.39419,2,132.44,3,1.90706,0\C,11,1.40435,1,116.485,2,-177.959,0\N,12,1.38247,11,118.869,1,176.516,0\H,13,1.006,12,116.332,11,167.662,0\H,13,1.00604,12,116.391,11,28.0867,0\C,11,1.46116,1,121.85,2,-0.210328,0\H,16,1.08394,11,115.577,1,-140.132,0\C,16,1.32769,11,125.22,1,38.9482,0\H,18,1.0769,16,121.66,11,-178.409,0\H,18,1.07788,16,122.205,11,3.99463,0\C,10,1.46487,8,118.966,7,177.958,0\H,21,1.08548,10,116.623,8,-140.843,0\C,21,1.32555,10,124.649,8,37.5217,0\H,23,1.07664,21,121.752,10,2.84302,0\H,23,1.07675,21,121.792,10,-177.897,0\\\@

 Total job time:  40.16s(wall), 40.04s(cpu) 
 Mon Feb  7 18:07:11 2022

        *************************************************************
        *                                                           *
        *  Thank you very much for using Q-Chem.  Have a nice day.  *
        *                                                           *
        *************************************************************


