
Running Job 1 of 1 tidas/B057/conf-0/spe_input.inp
qchem tidas/B057/conf-0/spe_input.inp_151923.0 /home/a/aspuru/seifridm/acdc_laser/descriptor_computation/qchem151923/ 0
/gpfs/fs1/scinet/niagara/software/commercial/qc54/exe/qcprog.exe_s tidas/B057/conf-0/spe_input.inp_151923.0 /home/a/aspuru/seifridm/acdc_laser/descriptor_computation/qchem151923/
                  Welcome to Q-Chem
     A Quantum Leap Into The Future Of Chemistry


 Q-Chem 5.4, Q-Chem, Inc., Pleasanton, CA (2021)

 License issued to: SRG Alan Aspuru-Guzik, University of Toronto

 E. Epifanovsky,  A. T. B. Gilbert,  Xintian Feng,  Joonho Lee,  Yuezhi Mao,  
 N. Mardirossian,  P. Pokhilko,  A. White,  M. Wormit,  M. P. Coons,  
 A. L. Dempwolff,  Zhengting Gan,  D. Hait,  P. R. Horn,  L. D. Jacobson,  
 I. Kaliman,  J. Kussmann,  A. W. Lange,  Ka Un Lao,  D. S. Levine,  Jie Liu,  
 S. C. McKenzie,  A. F. Morrison,  K. Nanda,  F. Plasser,  D. R. Rehn,  
 M. L. Vidal,  Zhi-Qiang You,  Ying Zhu,  B. Alam,  B. Albrecht,  
 A. Aldossary,  E. Alguire,  J. H. Andersen,  D. Barton,  K. Begam,  A. Behn,  
 Y. A. Bernard,  E. J. Berquist,  H. Burton,  A. Carreras,  K. Carter-Fenk,  
 Romit Chakraborty,  A. D. Chien,  K. D. Closser,  V. Cofer-Shabica,  
 S. Dasgupta,  Jia Deng,  M. de Wergifosse,  M. Diedenhofen,  Hainam Do,  
 S. Ehlert,  Po-Tung Fang,  S. Fatehi,  Qingguo Feng,  T. Friedhoff,  
 J. Gayvert,  Qinghui Ge,  G. Gidofalvi,  M. Goldey,  J. Gomes,  
 C. Gonzalez-Espinoza,  S. Gulania,  A. Gunina,  M. W. D. Hanson-Heine,  
 P. H. P. Harbach,  A. W. Hauser,  M. F. Herbst,  M. Hernandez Vera,  
 M. Hodecker,  Z. C. Holden,  S. Houck,  Xunkun Huang,  Kerwin Hui,  
 B. C. Huynh,  M. Ivanov,  Hyunjun Ji,  Hanjie Jiang,  B. Kaduk,  S. Kaehler,  
 K. Khistyaev,  Jaehoon Kim,  P. Klunzinger,  Z. Koczor-Benda,  
 Joong Hoon Koh,  D. Kosenkov,  L. Koulias,  T. Kowalczyk,  C. M. Krauter,  
 K. Kue,  A. Kunitsa,  T. Kus,  A. Landau,  K. V. Lawler,  D. Lefrancois,  
 S. Lehtola,  Rain Li,  Yi-Pei Li,  Jiashu Liang,  M. Liebenthal,  
 Hung-Hsuan Lin,  You-Sheng Lin,  Fenglai Liu,  Kuan-Yu Liu,  
 M. Loipersberger,  A. Luenser,  A. Manjanath,  P. Manohar,  E. Mansoor,  
 S. F. Manzer,  Shan-Ping Mao,  A. V. Marenich,  T. Markovich,  S. Mason,  
 S. A. Maurer,  P. F. McLaughlin,  M. F. S. J. Menger,  J.-M. Mewes,  
 S. A. Mewes,  P. Morgante,  J. W. Mullinax,  K. J. Oosterbaan,  G. Paran,  
 Alexander C. Paul,  Suranjan K. Paul,  F. Pavosevic,  Zheng Pei,  S. Prager,  
 E. I. Proynov,  E. Ramos,  B. Rana,  A. E. Rask,  A. Rettig,  R. M. Richard,  
 F. Rob,  E. Rossomme,  T. Scheele,  M. Scheurer,  M. Schneider,  
 N. Sergueev,  S. M. Sharada,  W. Skomorowski,  D. W. Small,  C. J. Stein,  
 Yu-Chuan Su,  E. J. Sundstrom,  Zhen Tao,  J. Thirman,  T. Tsuchimochi,  
 N. M. Tubman,  S. P. Veccham,  O. Vydrov,  J. Wenzel,  J. Witte,  A. Yamada,  
 Kun Yao,  S. Yeganeh,  S. R. Yost,  A. Zech,  Igor Ying Zhang,  Xing Zhang,  
 Yu Zhang,  D. Zuev,  A. Aspuru-Guzik,  A. T. Bell,  N. A. Besley,  
 K. B. Bravaya,  B. R. Brooks,  D. Casanova,  Jeng-Da Chai,  S. Coriani,  
 C. J. Cramer,  A. E. DePrince, III,  R. A. DiStasio Jr.,  A. Dreuw,  
 B. D. Dunietz,  T. R. Furlani,  W. A. Goddard III,  S. Grimme,  
 S. Hammes-Schiffer,  T. Head-Gordon,  W. J. Hehre,  Chao-Ping Hsu,  
 T.-C. Jagau,  Yousung Jung,  A. Klamt,  Jing Kong,  D. S. Lambrecht,  
 WanZhen Liang,  N. J. Mayhall,  C. W. McCurdy,  J. B. Neaton,  T. Neudecker,  
 C. Ochsenfeld,  J. A. Parkhill,  R. Peverati,  V. A. Rassolov,  Yihan Shao,  
 L. V. Slipchenko,  R. P. Steele,  J. E. Subotnik,  A. J. W. Thom,  
 A. Tkatchenko,  D. G. Truhlar,  T. Van Voorhis,  T. A. Wesolowski,  
 K. B. Whaley,  H. L. Woodcock III,  P. M. Zimmerman,  S. Faraji,  
 P. M. W. Gill,  M. Head-Gordon,  J. M. Herbert,  A. I. Krylov

 Additional authors since Version 5.4.0: 
 Chandrima Chakravarty,  L. Cunha,  R. Kang,  Yongbin Kim,  S. Kotaru,  
 Shaozhi Li,  Xiangyuan Li,  F. Matz,  A. Molle,  V. Parravicini,  
 Haisheng Ren,  Hengyuan Shen,  Yingli Su,  Hung-Yi Tsai,  C. Utku,  
 Fang Wang,  Jeff Yang,  F. Zeller

 Contributors to earlier versions of Q-Chem not listed above: 
 R. D. Adamson,  B. Austin,  R. Baer,  J. Baker,  G. J. O. Beran,  
 K. Brandhorst,  S. T. Brown,  E. F. C. Byrd,  Arup K. Chakraborty,  
 G. K. L. Chan,  Chun-Min Chang,  Yunqing Chen,  C.-L. Cheng,  
 Siu Hung Chien,  D. M. Chipman,  D. L. Crittenden,  H. Dachsel,  
 R. J. Doerksen,  A. D. Dutoi,  R. G. Edgar,  J. Fosso-Tande,  
 L. Fusti-Molnar,  D. Ghosh,  A. Ghysels,  A. Golubeva-Zadorozhnaya,  
 J. Gonthier,  M. S. Gordon,  S. R. Gwaltney,  G. Hawkins,  J. E. Herr,  
 A. Heyden,  S. Hirata,  E. G. Hohenstein,  G. Kedziora,  F. J. Keil,  
 C. Kelley,  Jihan Kim,  R. A. King,  R. Z. Khaliullin,  P. P. Korambath,  
 W. Kurlancheek,  A. Laurent,  A. M. Lee,  M. S. Lee,  S. V. Levchenko,  
 Ching Yeh Lin,  D. Liotard,  E. Livshits,  R. C. Lochan,  I. Lotan,  
 L. A. Martinez-Martinez,  P. E. Maslen,  N. Nair,  D. P. O'Neill,  
 D. Neuhauser,  E. Neuscamman,  C. M. Oana,  R. Olivares-Amaya,  R. Olson,  
 T. M. Perrine,  B. Peters,  P. A. Pieniazek,  A. Prociuk,  Y. M. Rhee,  
 J. Ritchie,  M. A. Rohrdanz,  E. Rosta,  N. J. Russ,  H. F. Schaefer III,  
 M. W. Schmidt,  N. E. Schultz,  S. Sharma,  N. Shenvi,  C. D. Sherrill,  
 A. C. Simmonett,  A. Sodt,  T. Stein,  D. Stuck,  K. S. Thanthiriwatte,  
 V. Vanovschi,  L. Vogt,  Tao Wang,  A. Warshel,  M. A. Watson,  
 C. F. Williams,  Q. Wu,  X. Xu,  Jun Yang,  W. Zhang,  Yan Zhao

   Please cite Q-Chem as follows:
  "Software for the frontiers of quantum chemistry:
   An overview of developments in the Q-Chem 5 package"
   J. Chem. Phys. 155, 084801 (2021)
   https://doi.org/10.1063/5.0055522 (open access)

 Q-Chem 5.4.2 for Intel X86 EM64T Linux

 Parts of Q-Chem use Armadillo 9.900.5 (Nocturnal Misbehaviour).
 http://arma.sourceforge.net/

 Q-Chem begins on Fri Aug 12 13:13:16 2022  

 Host: 
0

     Scratch files written to /home/a/aspuru/seifridm/acdc_laser/descriptor_computation/qchem151923//
 Dec1321 |scratch|qcdevops|jenkins|workspace|build_RNUM 6959   
 Processing $rem in /gpfs/fs1/scinet/niagara/software/commercial/qc54/config/preferences:
 Processing $rem in /home/a/aspuru/seifridm/.qchemrc:

 Checking the input file for inconsistencies... 	...done.

--------------------------------------------------------------
User input:
--------------------------------------------------------------
$molecule
0 1
C            2.70718466680000       -2.64035692400000       -0.15749252870000
C            1.57811766050000       -2.02811078260000        0.17693415530000
C            1.34662821460000       -0.59675777520000        0.07707881360000
C            2.33941485260000        0.33995347890000        0.06363784380000
S            1.74631823060000        1.94586727500000       -0.02605891560000
C            0.13147149990000        1.38200855270000       -0.05248271490000
C            0.04640222910000        0.01757252800000        0.00861280090000
C           -1.18402461910000       -0.74304525370000       -0.02701206540000
C           -2.41665455280000       -0.25702045900000       -0.00971652920000
F           -2.77926485490000        1.02009689420000        0.05218071420000
F           -3.50745923870000       -1.01950034880000       -0.05202865470000
H            2.82200708630000       -3.70467236580000       -0.04787843290000
H            3.55104562020000       -2.10746615410000       -0.56081584940000
H            0.75355142570000       -2.61344244210000        0.56103457280000
H            3.39618451700000        0.17673867350000        0.12755015250000
H           -0.66704504250000        2.09238824680000       -0.11973784300000
H           -1.10663835060000       -1.81752681380000       -0.08222077610000
$end

$rem
BASIS = 6-31G*
GUI = 2
METHOD = B3LYP
PRINT_ORBITALS false
MOLDEN_FORMAT false
$end
--------------------------------------------------------------
 ----------------------------------------------------------------
             Standard Nuclear Orientation (Angstroms)
    I     Atom           X                Y                Z
 ----------------------------------------------------------------
    1      C       2.7346770166     2.4772433945     0.1552811945
    2      C       1.5793719017     1.9154413207    -0.1780765273
    3      C       1.2854092916     0.4955423723    -0.0790672110
    4      C       2.2361378252    -0.4838561897    -0.0677688054
    5      S       1.5732405830    -2.0622658202     0.0214417142
    6      C      -0.0152609245    -1.4280896031     0.0505677514
    7      C      -0.0404366466    -0.0611815854    -0.0092967830
    8      C      -1.2362396924     0.7526816455     0.0286569627
    9      C      -2.4890385335     0.3212474255     0.0126767278
   10      F      -2.9074436825    -0.9386673381    -0.0497584659
   11      F      -3.5452633511     1.1308363427     0.0571253601
   12      H       2.8959602909     3.5355883851     0.0463758039
   13      H       3.5548768022     1.9074716548     0.5569975852
   14      H       0.7807761723     2.5367396007    -0.5605540643
   15      H       3.2989660750    -0.3671301174    -0.1330153757
   16      H      -0.8440993590    -2.1027920101     0.1183522772
   17      H      -1.1116874363     1.8226818869     0.0846344406
 ----------------------------------------------------------------
 Molecular Point Group                 C1    NOp =  1
 Largest Abelian Subgroup              C1    NOp =  1
 Nuclear Repulsion Energy =         650.69993841 hartrees
 There are       44 alpha and       44 beta electrons
 Requested basis set is 6-31G(d)
 There are 57 shells and 181 basis functions

 Total QAlloc Memory Limit   8000 MB
 Mega-Array Size       188 MB
 MEM_STATIC part       192 MB
 A cutoff of  1.0D-08 yielded   1188 shell pairs
 There are     12668 function pairs
 Smallest overlap matrix eigenvalue = 8.98E-04

 Scale SEOQF with 1.000000e-01/1.000000e-01/1.000000e+00

 Standard Electronic Orientation quadrupole field applied
 Nucleus-field energy     =     0.0000000274 hartrees
 Guess from superposition of atomic densities
 Warning:  Energy on first SCF cycle will be non-variational
 SAD guess density has 88.000000 electrons

 -----------------------------------------------------------------------
  General SCF calculation program by
  Eric Jon Sundstrom, Paul Horn, Yuezhi Mao, Dmitri Zuev, Alec White,
  David Stuck, Shaama M.S., Shane Yost, Joonho Lee, David Small,
  Daniel Levine, Susi Lehtola, Hugh Burton, Evgeny Epifanovsky,
  Bang C. Huynh
 -----------------------------------------------------------------------
 Exchange:     0.2000 Hartree-Fock + 0.0800 Slater + 0.7200 B88
 Correlation:  0.1900 VWN1RPA + 0.8100 LYP
 Using SG-1 standard quadrature grid
 A restricted SCF calculation will be
 performed using DIIS
 SCF converges when DIIS error is below 1.0e-05
 ---------------------------------------
  Cycle       Energy         DIIS error
 ---------------------------------------
    1    -908.7511274760      5.85e-02  
    2    -906.0606689456      7.01e-03  
    3    -905.7869600633      1.05e-02  
    4    -906.2511419790      1.99e-03  
    5    -906.2658404398      7.21e-04  
    6    -906.2676537785      2.67e-04  
    7    -906.2679319268      6.53e-05  
    8    -906.2679502519      1.94e-05  
    9    -906.2679521412      5.17e-06  Convergence criterion met
 ---------------------------------------
 SCF time:   CPU 29.85s  wall 30.00s 
 SCF   energy in the final basis set =     -906.2679521412
 Total energy in the final basis set =     -906.2679521412
 
 --------------------------------------------------------------
 
                    Orbital Energies (a.u.)
 --------------------------------------------------------------
 
 Alpha MOs
 -- Occupied --
-88.9127 -24.7453 -24.7358 -10.3573 -10.2121 -10.2104 -10.2081 -10.2060
-10.2012 -10.1978 -10.1846  -7.9745  -5.9382  -5.9346  -5.9319  -1.2860
 -1.2259  -0.8954  -0.8112  -0.7970  -0.7273  -0.7156  -0.6403  -0.6124
 -0.5831  -0.5771  -0.5427  -0.5199  -0.5158  -0.4812  -0.4643  -0.4423
 -0.4387  -0.4320  -0.4143  -0.3984  -0.3956  -0.3830  -0.3676  -0.3466
 -0.3055  -0.3011  -0.2239  -0.2177
 -- Virtual --
 -0.0332  -0.0165   0.0310   0.0581   0.0927   0.1055   0.1193   0.1291
  0.1393   0.1440   0.1629   0.1849   0.1938   0.2238   0.2508   0.2891
  0.3075   0.3286   0.3532   0.3631   0.3747   0.3975   0.4322   0.4383
  0.4534   0.4825   0.5015   0.5201   0.5304   0.5504   0.5754   0.5792
  0.5810   0.5863   0.5934   0.6107   0.6230   0.6809   0.6828   0.7169
  0.7196   0.7680   0.7823   0.7845   0.8211   0.8341   0.8396   0.8464
  0.8589   0.8792   0.9001   0.9247   0.9374   0.9574   0.9658   0.9969
  1.0198   1.0531   1.0708   1.1048   1.1104   1.1317   1.1648   1.1750
  1.1911   1.2153   1.2238   1.2561   1.3028   1.3289   1.3464   1.3793
  1.4015   1.4164   1.4446   1.4606   1.4781   1.4852   1.5204   1.5963
  1.6407   1.6690   1.7105   1.7314   1.7643   1.7835   1.8101   1.8181
  1.8337   1.8398   1.8698   1.8948   1.9295   1.9732   1.9975   2.0076
  2.0182   2.0223   2.0663   2.0894   2.1147   2.1546   2.2116   2.2219
  2.2549   2.2783   2.2837   2.3496   2.3681   2.4183   2.4598   2.4747
  2.5067   2.5339   2.5673   2.6473   2.6596   2.6853   2.7420   2.8094
  2.8900   3.0054   3.0700   3.1133   3.2238   3.3318   3.9493   4.0736
  4.0955   4.1205   4.1449   4.2466   4.2864   4.4053   4.6405   4.7825
  5.3121
 --------------------------------------------------------------
 
          Ground-State Mulliken Net Atomic Charges

     Atom                 Charge (a.u.)
  ----------------------------------------
      1 C                    -0.343619
      2 C                    -0.103742
      3 C                     0.136619
      4 C                    -0.416830
      5 S                     0.278520
      6 C                    -0.428076
      7 C                     0.159429
      8 C                    -0.282411
      9 C                     0.546908
     10 F                    -0.237796
     11 F                    -0.247841
     12 H                     0.145173
     13 H                     0.143064
     14 H                     0.134173
     15 H                     0.173877
     16 H                     0.179924
     17 H                     0.162628
  ----------------------------------------
  Sum of atomic charges =     0.000000

 -----------------------------------------------------------------
                    Cartesian Multipole Moments
 -----------------------------------------------------------------
    Charge (ESU x 10^10)
                 0.0000
    Dipole Moment (Debye)
         X       0.9052      Y       0.6140      Z      -0.0165
       Tot       1.0940
    Quadrupole Moments (Debye-Ang)
        XX     -66.8174     XY       1.7048     YY     -64.7273
        XZ       0.3941     YZ      -0.6135     ZZ     -71.2161
    Octopole Moments (Debye-Ang^2)
       XXX     -11.6284    XXY      -1.5754    XYY     -15.6386
       YYY       6.0455    XXZ       2.6424    XYZ       1.2983
       YYZ      -1.0613    XZZ     -22.2038    YZZ      -1.3743
       ZZZ       0.0355
    Hexadecapole Moments (Debye-Ang^3)
      XXXX   -1718.5896   XXXY       0.2022   XXYY    -451.3375
      XYYY      16.7164   YYYY    -930.0921   XXXZ      10.6369
      XXYZ       5.7235   XYYZ      -0.2176   YYYZ      -6.5154
      XXZZ    -312.2333   XYZZ      -7.9504   YYZZ    -188.1080
      XZZZ       0.1704   YZZZ       0.4317   ZZZZ     -78.0150
 -----------------------------------------------------------------
 Total job time:  30.72s(wall), 30.15s(cpu) 
 Fri Aug 12 13:13:47 2022

        *************************************************************
        *                                                           *
        *  Thank you very much for using Q-Chem.  Have a nice day.  *
        *                                                           *
        *************************************************************


