17
 energy: -32.835348497948 gnorm: 0.000084852540 xtb: 6.5.0 (unknown)
C            2.70718466680000       -2.64035692400000       -0.15749252870000
C            1.57811766050000       -2.02811078260000        0.17693415530000
C            1.34662821460000       -0.59675777520000        0.07707881360000
C            2.33941485260000        0.33995347890000        0.06363784380000
S            1.74631823060000        1.94586727500000       -0.02605891560000
C            0.13147149990000        1.38200855270000       -0.05248271490000
C            0.04640222910000        0.01757252800000        0.00861280090000
C           -1.18402461910000       -0.74304525370000       -0.02701206540000
C           -2.41665455280000       -0.25702045900000       -0.00971652920000
F           -2.77926485490000        1.02009689420000        0.05218071420000
F           -3.50745923870000       -1.01950034880000       -0.05202865470000
H            2.82200708630000       -3.70467236580000       -0.04787843290000
H            3.55104562020000       -2.10746615410000       -0.56081584940000
H            0.75355142570000       -2.61344244210000        0.56103457280000
H            3.39618451700000        0.17673867350000        0.12755015250000
H           -0.66704504250000        2.09238824680000       -0.11973784300000
H           -1.10663835060000       -1.81752681380000       -0.08222077610000
