
Running Job 1 of 1 fragments/A006/conf-0/spe_input.inp
qchem fragments/A006/conf-0/spe_input.inp_135383.0 /gpfs/fs0/scratch/a/aspuru/rhickman/descriptor_computation/qchem135383/ 0
/scinet/niagara/software/commercial/qc52/exe/qcprog.exe_s fragments/A006/conf-0/spe_input.inp_135383.0 /gpfs/fs0/scratch/a/aspuru/rhickman/descriptor_computation/qchem135383/
                  Welcome to Q-Chem
     A Quantum Leap Into The Future Of Chemistry


 Q-Chem 5.2, Q-Chem, Inc., Pleasanton, CA (2019)

 License issued to: SRG Alan Aspuru-Guzik, University of Toronto

 Yihan Shao,  Zhengting Gan,  E. Epifanovsky,  A. T. B. Gilbert,  M. Wormit,  
 J. Kussmann,  A. W. Lange,  A. Behn,  Jia Deng,  Xintian Feng,  D. Ghosh,  
 M. Goldey,  P. R. Horn,  L. D. Jacobson,  I. Kaliman,  T. Kus,  A. Landau,  
 Jie Liu,  E. I. Proynov,  R. M. Richard,  R. P. Steele,  E. J. Sundstrom,  
 H. L. Woodcock III,  P. M. Zimmerman,  D. Zuev,  B. Albrecht,  E. Alguire,  
 S. A. Baeppler,  D. Barton,  Z. Benda,  Y. A. Bernard,  E. J. Berquist,  
 K. B. Bravaya,  H. Burton,  D. Casanova,  Chun-Min Chang,  Yunqing Chen,  
 A. Chien,  K. D. Closser,  M. P. Coons,  S. Coriani,  S. Dasgupta,  
 A. L. Dempwolff,  M. Diedenhofen,  Hainam Do,  R. G. Edgar,  Po-Tung Fang,  
 S. Faraji,  S. Fatehi,  Qingguo Feng,  K. D. Fenk,  J. Fosso-Tande,  
 J. Gayvert,  Qinghui Ge,  A. Ghysels,  G. Gidofalvi,  J. Gomes,  
 J. Gonthier,  A. Gunina,  D. Hait,  M. W. D. Hanson-Heine,  
 P. H. P. Harbach,  A. W. Hauser,  M. F. Herbst,  J. E. Herr,  
 E. G. Hohenstein,  Z. C. Holden,  Kerwin Hui,  B. C. Huynh,  T.-C. Jagau,  
 Hyunjun Ji,  B. Kaduk,  K. Khistyaev,  Jaehoon Kim,  P. Klunzinger,  K. Koh,  
 D. Kosenkov,  L. Koulias,  T. Kowalczyk,  C. M. Krauter,  A. Kunitsa,  
 Ka Un Lao,  A. Laurent,  K. V. Lawler,  Joonho Lee,  D. Lefrancois,  
 S. Lehtola,  D. S. Levine,  Yi-Pei Li,  You-Sheng Lin,  Fenglai Liu,  
 E. Livshits,  A. Luenser,  P. Manohar,  E. Mansoor,  S. F. Manzer,  
 Shan-Ping Mao,  Yuezhi Mao,  N. Mardirossian,  A. V. Marenich,  
 T. Markovich,  L. A. Martinez-Martinez,  S. A. Maurer,  N. J. Mayhall,  
 S. C. McKenzie,  J.-M. Mewes,  P. Morgante,  A. F. Morrison,  
 J. W. Mullinax,  K. Nanda,  T. S. Nguyen-Beck,  R. Olivares-Amaya,  
 J. A. Parkhill,  Zheng Pei,  T. M. Perrine,  F. Plasser,  P. Pokhilko,  
 S. Prager,  A. Prociuk,  E. Ramos,  D. R. Rehn,  F. Rob,  M. Scheurer,  
 M. Schneider,  N. Sergueev,  S. M. Sharada,  S. Sharma,  D. W. Small,  
 T. Stauch,  T. Stein,  Yu-Chuan Su,  A. J. W. Thom,  A. Tkatchenko,  
 T. Tsuchimochi,  N. M. Tubman,  L. Vogt,  M. L. Vidal,  O. Vydrov,  
 M. A. Watson,  J. Wenzel,  M. de Wergifosse,  T. A. Wesolowski,  A. White,  
 J. Witte,  A. Yamada,  Jun Yang,  K. Yao,  S. Yeganeh,  S. R. Yost,  
 Zhi-Qiang You,  A. Zech,  Igor Ying Zhang,  Xing Zhang,  Yan Zhao,  
 Ying Zhu,  B. R. Brooks,  G. K. L. Chan,  C. J. Cramer,  M. S. Gordon,  
 W. J. Hehre,  A. Klamt,  M. W. Schmidt,  C. D. Sherrill,  D. G. Truhlar,  
 A. Aspuru-Guzik,  R. Baer,  A. T. Bell,  N. A. Besley,  Jeng-Da Chai,  
 A. E. DePrince, III,  R. A. DiStasio Jr.,  A. Dreuw,  B. D. Dunietz,  
 T. R. Furlani,  Chao-Ping Hsu,  Yousung Jung,  Jing Kong,  D. S. Lambrecht,  
 WanZhen Liang,  C. Ochsenfeld,  V. A. Rassolov,  L. V. Slipchenko,  
 J. E. Subotnik,  T. Van Voorhis,  J. M. Herbert,  A. I. Krylov,  
 P. M. W. Gill,  M. Head-Gordon

 Contributors to earlier versions of Q-Chem not listed above: 
 R. D. Adamson,  B. Austin,  J. Baker,  G. J. O. Beran,  K. Brandhorst,  
 S. T. Brown,  E. F. C. Byrd,  A. K. Chakraborty,  C.-L. Cheng,  
 Siu Hung Chien,  D. M. Chipman,  D. L. Crittenden,  H. Dachsel,  
 R. J. Doerksen,  A. D. Dutoi,  L. Fusti-Molnar,  W. A. Goddard III,  
 A. Golubeva-Zadorozhnaya,  S. R. Gwaltney,  G. Hawkins,  A. Heyden,  
 S. Hirata,  G. Kedziora,  F. J. Keil,  C. Kelley,  Jihan Kim,  R. A. King,  
 R. Z. Khaliullin,  P. P. Korambath,  W. Kurlancheek,  A. M. Lee,  M. S. Lee,  
 S. V. Levchenko,  Ching Yeh Lin,  D. Liotard,  R. C. Lochan,  I. Lotan,  
 P. E. Maslen,  N. Nair,  D. P. O'Neill,  D. Neuhauser,  E. Neuscamman,  
 C. M. Oana,  R. Olson,  B. Peters,  R. Peverati,  P. A. Pieniazek,  
 Y. M. Rhee,  J. Ritchie,  M. A. Rohrdanz,  E. Rosta,  N. J. Russ,  
 H. F. Schaefer III,  N. E. Schultz,  N. Shenvi,  A. C. Simmonett,  A. Sodt,  
 D. Stuck,  K. S. Thanthiriwatte,  V. Vanovschi,  Tao Wang,  A. Warshel,  
 C. F. Williams,  Q. Wu,  X. Xu,  W. Zhang

 Please cite Q-Chem as follows:
 Y. Shao et al., Mol. Phys. 113, 184-215 (2015)
 DOI: 10.1080/00268976.2014.952696

 Q-Chem 5.2.1 for Intel X86 EM64T Linux

 Parts of Q-Chem use Armadillo 8.300.2 (Tropical Shenanigans).
 http://arma.sourceforge.net/

 Q-Chem begins on Mon Feb  7 16:46:05 2022  

Host: 
0

     Scratch files written to /gpfs/fs0/scratch/a/aspuru/rhickman/descriptor_computation/qchem135383//
 Jul1719 |scratch|qcdevops|jenkins|workspace|build_RNUM -1
Processing $rem in /scinet/niagara/software/commercial/qc52/config/preferences:
	 MEM_TOTAL  4000 
NAlpha2: 198
NElect   198
Mult     1

Checking the input file for inconsistencies... 	...done.

--------------------------------------------------------------
User input:
--------------------------------------------------------------
$molecule
0 1
F         2.17225346010000    5.57588635300000   -0.14239889340000
C         2.06545885610000    4.24740200520000   -0.08249176170000
F         0.78162681450000    3.92949256400000    0.05713015530000
C         3.10898351020000    3.43391808840000   -0.15019535820000
C         3.13270785590000    1.98188542530000   -0.09296881280000
C         4.39089076130000    1.35376763410000   -0.07485134020000
C         4.51689930780000   -0.01639043820000   -0.03274234260000
C         1.97156101050000    1.21305317160000   -0.06106356150000
C         2.09763817230000   -0.16405969960000    0.00436193850000
C         3.36566228450000   -0.79358942290000    0.00466749480000
C         3.12024645240000   -2.20551054320000    0.03230772870000
C         3.94958858130000   -3.32011301720000    0.06156461020000
C         3.37165110780000   -4.57211498700000    0.10792208910000
C         1.98612171810000   -4.72143753920000    0.13994262690000
C         1.14079475470000   -3.62935905880000    0.11164035290000
C         1.71475409930000   -2.36769320640000    0.04153475230000
N         1.11112351570000   -1.12700669720000    0.02477036990000
C        -0.27081761380000   -0.88368300250000    0.02277041500000
C        -1.09449699770000   -1.52506180760000   -0.89749789370000
C        -2.45387041700000   -1.28564919850000   -0.89436747430000
C        -3.02139745460000   -0.39133731120000    0.01110564670000
C        -4.46759090480000   -0.12949799400000    0.00373105200000
C        -5.37755061290000   -1.17055367730000   -0.16546744800000
C        -6.73749763910000   -0.92261546340000   -0.16832849980000
C        -7.21034783800000    0.36911336050000   -0.00834969530000
C        -6.31435576140000    1.41203528730000    0.15715441810000
C        -4.95419092130000    1.16570565610000    0.16620677170000
C        -2.18646666070000    0.25041905580000    0.92373739700000
C        -0.82876208360000    0.00344917360000    0.93854705040000
H         4.06457910980000    3.92806378090000   -0.25168417280000
H         5.27769860340000    1.96938593590000   -0.10032209480000
H         5.49097733650000   -0.48119600570000   -0.03271898260000
H         0.99681552430000    1.66905376970000   -0.10215382900000
H         5.02265639170000   -3.20277327820000    0.05249769300000
H         3.99720942290000   -5.45193396830000    0.12904772350000
H         1.56392949150000   -5.71415362100000    0.19178293060000
H         0.06949530510000   -3.75466547420000    0.15453514130000
H        -0.66031194260000   -2.19661759950000   -1.62328788440000
H        -3.08182386400000   -1.77536676780000   -1.62398991320000
H        -5.01512968510000   -2.18267028970000   -0.27356437780000
H        -7.43208990060000   -1.74055028290000   -0.29393422630000
H        -8.27288926340000    0.56216409730000   -0.01274446440000
H        -6.67758407550000    2.42225255290000    0.27789724170000
H        -4.25937781940000    1.98528112570000    0.27794715580000
H        -2.61072815350000    0.93023084260000    1.64743552180000
H        -0.19552918430000    0.48563437540000    1.66807547540000
$end

$rem
BASIS = 6-31G*
GUI = 2
METHOD = B3LYP
PRINT_ORBITALS false
MOLDEN_FORMAT false
--------------------------------------------------------------
 ----------------------------------------------------------------
             Standard Nuclear Orientation (Angstroms)
    I     Atom           X                Y                Z
 ----------------------------------------------------------------
    1      F      -2.1222757399    -5.6636783782    -0.1605233599
    2      C      -2.0358884007    -4.3338990689    -0.0965793962
    3      F      -0.7571241825    -3.9967584199     0.0444300376
    4      C      -3.0917485412    -3.5363157497    -0.1621825695
    5      C      -3.1377591003    -2.0849970168    -0.1005908431
    6      C      -4.4054337524    -1.4763084722    -0.0810036525
    7      C      -4.5524562438    -0.1083775431    -0.0348103135
    8      C      -1.9885511085    -1.2985454303    -0.0659805911
    9      C      -2.1357556285     0.0762680565     0.0035500674
   10      C      -3.4132868354     0.6862711509     0.0053263750
   11      C      -3.1895650716     2.1017005323     0.0373013920
   12      C      -4.0359147352     3.2033582195     0.0696370396
   13      C      -3.4772629072     4.4639316992     0.1199590915
   14      C      -2.0941962689     4.6343904803     0.1528939833
   15      C      -1.2322094194     3.5554963282     0.1215861410
   16      C      -1.7867284863     2.2853928038     0.0474883040
   17      N      -1.1641334379     1.0541668661     0.0271896322
   18      C       0.2213779280     0.8320749685     0.0249203659
   19      C       1.0353885242     1.4887850761    -0.8931356470
   20      C       2.3982733608     1.2702421688    -0.8902703526
   21      C       2.9791894290     0.3820126595     0.0126953851
   22      C       4.4292311158     0.1424091092     0.0050172886
   23      C       5.3231641067     1.1978048598    -0.1607396296
   24      C       6.6867549881     0.9707642617    -0.1638912649
   25      C       7.1793168580    -0.3140368293    -0.0076451649
   26      C       6.2993795491    -1.3710732167     0.1544164479
   27      C       4.9355937628    -1.1456630230     0.1637544387
   28      C       2.1539367467    -0.2752244993     0.9231099634
   29      C       0.7925994481    -0.0491537657     0.9382079811
   30      H      -4.0396227204    -4.0447517054    -0.2654797833
   31      H      -5.2826870082    -2.1053764619    -0.1086259470
   32      H      -5.5335492067     0.3414308802    -0.0337137369
   33      H      -1.0069139479    -1.7394158358    -0.1081171430
   34      H      -5.1070537838     3.0696015947     0.0598568030
   35      H      -4.1162490887     5.3339847195     0.1435247370
   36      H      -1.6872958066     5.6333044118     0.2078656450
   37      H      -0.1629705058     3.6970894843     0.1652174954
   38      H       0.5911635958     2.1557888376    -1.6170452750
   39      H       3.0188522238     1.7717324292    -1.6182038154
   40      H       4.9452924267     2.2045651405    -0.2659092202
   41      H       7.3687556807     1.7996316254    -0.2867998730
   42      H       8.2446956746    -0.4907535983    -0.0122649540
   43      H       6.6780257296    -2.3759601481     0.2722378657
   44      H       4.2534014312    -1.9761323959     0.2727927524
   45      H       2.5883665228    -0.9506291426     1.6448995400
   46      H       0.1666262437    -0.5431932708     1.6660683464
 ----------------------------------------------------------------
 Molecular Point Group                 C1    NOp =  1
 Largest Abelian Subgroup              C1    NOp =  1
 Nuclear Repulsion Energy =        2436.80994636 hartrees
 There are       99 alpha and       99 beta electrons
 Requested basis set is 6-31G(d)
 There are 150 shells and 469 basis functions

 Total QAlloc Memory Limit   4000 MB
 Mega-Array Size       188 MB
 MEM_STATIC part       192 MB
 A cutoff of  1.0D-08 yielded   4586 shell pairs
 There are     48380 function pairs
 Smallest overlap matrix eigenvalue = 2.52E-04

 Scale SEOQF with 1.000000e-02/1.000000e-02/1.000000e-01

 Standard Electronic Orientation quadrupole field applied
 Nucleus-field energy     =     0.0000000151 hartrees
 Guess from superposition of atomic densities
 Warning:  Energy on first SCF cycle will be non-variational
 SAD guess density has 198.000000 electrons

 -----------------------------------------------------------------------
  General SCF calculation program by
  Eric Jon Sundstrom, Paul Horn, Yuezhi Mao, Dmitri Zuev, Alec White,
  David Stuck, Shaama M.S., Shane Yost, Joonho Lee, David Small,
  Daniel Levine, Susi Lehtola, Hugh Burton, Evgeny Epifanovsky,
  Bang C. Huynh
 -----------------------------------------------------------------------
 Exchange:     0.2000 Hartree-Fock + 0.0800 Slater + 0.7200 B88
 Correlation:  0.1900 VWN1RPA + 0.8100 LYP
 Using SG-1 standard quadrature grid
 A restricted SCF calculation will be
 performed using DIIS
 SCF converges when DIIS error is below 1.0e-05
 ---------------------------------------
  Cycle       Energy         DIIS error
 ---------------------------------------
    1   -1263.2084196632      3.86e-02  
    2   -1255.0397833292      3.68e-03  
    3   -1254.7974292353      4.77e-03  
    4   -1255.3943813495      1.29e-03  
    5   -1255.4381872856      4.17e-04  
    6   -1255.4422733704      2.09e-04  
    7   -1255.4435111334      4.86e-05  
    8   -1255.4435693196      2.14e-05  
    9   -1255.4435828731      4.47e-06  Convergence criterion met
 ---------------------------------------
 SCF time:   CPU 164.29s  wall 164.00s 
 SCF   energy in the final basis set =    -1255.4435828731
 Total energy in the final basis set =    -1255.4435828731
 
 --------------------------------------------------------------
 
                    Orbital Energies (a.u.)
 --------------------------------------------------------------
 
 Alpha MOs
 -- Occupied --
-24.7414 -24.7303 -14.3832 -10.3522 -10.2366 -10.2225 -10.2214 -10.2028
-10.2017 -10.1997 -10.1981 -10.1975 -10.1972 -10.1963 -10.1960 -10.1900
-10.1898 -10.1892 -10.1889 -10.1886 -10.1877 -10.1855 -10.1851 -10.1849
-10.1845 -10.1844 -10.1838 -10.1821 -10.1779  -1.2812  -1.2204  -1.0033
 -0.8829  -0.8650  -0.8563  -0.8452  -0.8117  -0.7876  -0.7665  -0.7642
 -0.7537  -0.7489  -0.7427  -0.7161  -0.7112  -0.6595  -0.6401  -0.6336
 -0.6192  -0.6117  -0.5992  -0.5960  -0.5795  -0.5791  -0.5672  -0.5430
 -0.5313  -0.5287  -0.5152  -0.5095  -0.4979  -0.4835  -0.4804  -0.4622
 -0.4575  -0.4503  -0.4488  -0.4437  -0.4393  -0.4375  -0.4368  -0.4355
 -0.4325  -0.4248  -0.4229  -0.4203  -0.4129  -0.4034  -0.3893  -0.3834
 -0.3725  -0.3707  -0.3650  -0.3627  -0.3590  -0.3449  -0.3441  -0.3399
 -0.3359  -0.3304  -0.3032  -0.2783  -0.2640  -0.2553  -0.2551  -0.2537
 -0.2355  -0.2010  -0.1974
 -- Virtual --
 -0.0380  -0.0324  -0.0116  -0.0020   0.0079   0.0138   0.0219   0.0425
  0.0835   0.0905   0.0955   0.1003   0.1066   0.1257   0.1278   0.1339
  0.1446   0.1526   0.1532   0.1565   0.1635   0.1670   0.1684   0.1726
  0.1744   0.1854   0.1872   0.1935   0.2033   0.2069   0.2118   0.2176
  0.2194   0.2341   0.2570   0.2644   0.2708   0.2806   0.2894   0.2977
  0.3036   0.3066   0.3154   0.3246   0.3294   0.3439   0.3524   0.3549
  0.3721   0.3756   0.3800   0.3920   0.4242   0.4424   0.4456   0.4613
  0.4813   0.4893   0.4932   0.5019   0.5068   0.5196   0.5245   0.5288
  0.5323   0.5393   0.5400   0.5423   0.5486   0.5490   0.5546   0.5591
  0.5632   0.5653   0.5686   0.5724   0.5762   0.5783   0.5800   0.5850
  0.5865   0.5939   0.5973   0.5994   0.6009   0.6034   0.6103   0.6146
  0.6147   0.6187   0.6210   0.6217   0.6246   0.6273   0.6348   0.6390
  0.6439   0.6469   0.6475   0.6539   0.6673   0.6738   0.6749   0.6912
  0.7104   0.7156   0.7210   0.7402   0.7495   0.7598   0.7791   0.7932
  0.7954   0.8088   0.8119   0.8211   0.8219   0.8337   0.8355   0.8384
  0.8401   0.8436   0.8470   0.8545   0.8557   0.8623   0.8664   0.8705
  0.8772   0.8810   0.8944   0.9108   0.9168   0.9191   0.9206   0.9367
  0.9419   0.9509   0.9537   0.9641   0.9700   0.9802   0.9881   1.0009
  1.0079   1.0144   1.0149   1.0204   1.0413   1.0469   1.0571   1.0812
  1.0861   1.0993   1.1063   1.1214   1.1250   1.1318   1.1546   1.1581
  1.1625   1.1683   1.1773   1.1806   1.1852   1.2005   1.2108   1.2135
  1.2198   1.2251   1.2399   1.2451   1.2653   1.2665   1.2697   1.2826
  1.2917   1.3269   1.3336   1.3436   1.3535   1.3647   1.3758   1.4002
  1.4024   1.4072   1.4175   1.4252   1.4331   1.4413   1.4548   1.4606
  1.4650   1.4658   1.4709   1.4741   1.4758   1.4854   1.4901   1.4933
  1.4970   1.5004   1.5028   1.5075   1.5128   1.5171   1.5583   1.6079
  1.6154   1.6425   1.6538   1.6737   1.6888   1.7228   1.7416   1.7464
  1.7583   1.7778   1.7820   1.7839   1.7932   1.7957   1.8040   1.8262
  1.8323   1.8362   1.8378   1.8410   1.8427   1.8586   1.8765   1.8839
  1.8936   1.9067   1.9073   1.9222   1.9274   1.9327   1.9348   1.9393
  1.9574   1.9709   1.9751   1.9831   1.9902   1.9982   2.0049   2.0085
  2.0281   2.0313   2.0405   2.0554   2.0731   2.0805   2.0836   2.0950
  2.1102   2.1148   2.1235   2.1326   2.1417   2.1424   2.1566   2.1599
  2.1625   2.1676   2.1824   2.2021   2.2185   2.2245   2.2391   2.2452
  2.2534   2.2623   2.2722   2.2733   2.2818   2.3058   2.3124   2.3139
  2.3167   2.3200   2.3250   2.3457   2.3497   2.3652   2.3851   2.4016
  2.4144   2.4270   2.4726   2.5056   2.5139   2.5262   2.5403   2.5639
  2.5722   2.5792   2.5937   2.6085   2.6293   2.6382   2.6441   2.6510
  2.6641   2.6735   2.6802   2.6904   2.7019   2.7119   2.7281   2.7304
  2.7429   2.7581   2.7618   2.7653   2.7694   2.7791   2.7936   2.8288
  2.8419   2.8608   2.8771   2.8913   2.9011   2.9340   2.9547   2.9905
  2.9955   3.0038   3.0676   3.1346   3.1541   3.2314   3.2608   3.3000
  3.3782   3.3969   3.4467   3.5131   3.5704   4.0835   4.0958   4.1009
  4.1084   4.1144   4.1181   4.1216   4.1296   4.1422   4.1550   4.1678
  4.1898   4.2042   4.2632   4.3329   4.3355   4.3452   4.3555   4.3718
  4.4317   4.4637   4.5147   4.5300   4.6864   4.7646   4.7871   4.8265
  4.8877   5.2858
 --------------------------------------------------------------
 
          Ground-State Mulliken Net Atomic Charges

     Atom                 Charge (a.u.)
  ----------------------------------------
      1 F                    -0.251619
      2 C                     0.542209
      3 F                    -0.237685
      4 C                    -0.303664
      5 C                     0.196713
      6 C                    -0.218112
      7 C                    -0.195302
      8 C                    -0.260916
      9 C                     0.319647
     10 C                     0.066794
     11 C                     0.057013
     12 C                    -0.193874
     13 C                    -0.145488
     14 C                    -0.138399
     15 C                    -0.177441
     16 C                     0.315361
     17 N                    -0.737937
     18 C                     0.285577
     19 C                    -0.161650
     20 C                    -0.187890
     21 C                     0.098145
     22 C                     0.085296
     23 C                    -0.170249
     24 C                    -0.132672
     25 C                    -0.123581
     26 C                    -0.132993
     27 C                    -0.170331
     28 C                    -0.186979
     29 C                    -0.161352
     30 H                     0.158976
     31 H                     0.121770
     32 H                     0.131606
     33 H                     0.151390
     34 H                     0.128647
     35 H                     0.122126
     36 H                     0.125354
     37 H                     0.139059
     38 H                     0.152674
     39 H                     0.139746
     40 H                     0.130834
     41 H                     0.130424
     42 H                     0.129592
     43 H                     0.131125
     44 H                     0.133283
     45 H                     0.140803
     46 H                     0.153971
  ----------------------------------------
  Sum of atomic charges =     0.000000

 -----------------------------------------------------------------
                    Cartesian Multipole Moments
 -----------------------------------------------------------------
    Charge (ESU x 10^10)
                 0.0000
    Dipole Moment (Debye)
         X       1.0988      Y       0.7381      Z      -0.0273
       Tot       1.3239
    Quadrupole Moments (Debye-Ang)
        XX    -142.6872     XY       1.6097     YY    -157.9082
        XZ      -0.3503     YZ      -3.6056     ZZ    -166.8616
    Octopole Moments (Debye-Ang^2)
       XXX      10.6228    XXY     -31.5079    XYY       5.0338
       YYY     -11.6586    XXZ      -5.8245    XYZ     -12.4736
       YYZ      -2.3092    XZZ      -3.6355    YZZ     -32.7804
       ZZZ      -0.8983
    Hexadecapole Moments (Debye-Ang^3)
      XXXX  -11484.1162   XXXY     107.9956   XXYY   -2889.9564
      XYYY      23.6615   YYYY   -5979.1213   XXXZ     -12.9751
      XXYZ     -34.2756   XYYZ      -4.8093   YYYZ       3.0447
      XXZZ   -2373.3151   XYZZ      60.8375   YYZZ   -1088.3864
      XZZZ       0.7780   YZZZ     -10.7479   ZZZZ    -322.5083
 -----------------------------------------------------------------
Archival summary:
1\1\nia1977.scinet.local\SP\ProcedureUnspecified\6-31G*\212617\rhickman\MonFeb716:48:502022MonFeb716:48:502022\0\\#,ProcedureUnspecified,6-31G*,\\0,1\N\C,1,1.37873\C,1,1.37984,2,108.37\C,2,1.38442,1,129.071,3,177.651,0\H,4,1.07692,2,120.36,1,0.158482,0\C,3,1.38786,1,129.576,2,177.481,0\H,6,1.07946,3,121.196,1,0.580833,0\C,6,1.38131,3,117.819,1,-178.709,0\H,8,1.08001,6,119.24,3,-179.841,0\C,4,1.39298,2,118.307,1,-178.861,0\C,8,1.39392,6,121.542,3,0.388466,0\H,11,1.07975,8,119.218,6,-179.835,0\C,11,1.37974,8,120.953,6,0.730551,0\H,13,1.0795,11,121.017,8,179.023,0\C,13,1.38961,11,118.591,8,-0.705234,0\C,1,1.4032,2,125.701,3,-179.742,0\C,16,1.39166,1,120.26,2,129.011,0\H,17,1.07994,16,119.541,1,-1.2148,0\C,17,1.3803,16,120.097,1,179.845,0\H,19,1.08005,17,119.5,16,178.935,0\C,16,1.39174,1,120.293,2,-50.8229,0\H,21,1.07968,16,119.614,1,-1.53288,0\C,21,1.38006,16,120.093,1,179.316,0\H,23,1.07976,21,119.474,16,179.171,0\C,19,1.39347,17,120.923,16,0.841096,0\C,10,1.40637,4,119.93,2,0.762105,0\H,26,1.07984,10,118.671,4,179.995,0\C,26,1.37658,10,121.791,4,0.334885,0\H,28,1.07929,26,120.748,10,179.176,0\C,28,1.38953,26,118.796,10,-0.579224,0\C,10,1.45335,4,122.597,2,-179.47,0\H,31,1.08058,10,116.497,4,-175.217,0\C,31,1.32487,10,128.631,4,5.44892,0\F,33,1.32996,31,128.237,10,0.123716,0\F,33,1.33412,31,123.098,10,179.75,0\C,25,1.46972,19,120.786,17,179.441,0\C,36,1.393,25,120.68,19,41.4627,0\H,37,1.08047,36,119.545,25,1.16067,0\C,37,1.38237,36,120.587,25,179.817,0\H,39,1.08039,37,119.797,36,-179.59,0\C,39,1.38483,37,120.197,36,0.2897,0\H,41,1.07995,39,120.147,37,179.874,0\C,41,1.38488,39,119.693,37,-0.1201,0\H,43,1.0803,41,120.003,39,179.723,0\C,43,1.38232,41,120.212,39,-0.163522,0\H,45,1.08026,43,119.892,41,178.907,0\\\@

 Total job time:  165.24s(wall), 164.82s(cpu) 
 Mon Feb  7 16:48:50 2022

        *************************************************************
        *                                                           *
        *  Thank you very much for using Q-Chem.  Have a nice day.  *
        *                                                           *
        *************************************************************


