
Running Job 1 of 1 fragments/C145/conf-1/spe_input.inp
qchem fragments/C145/conf-1/spe_input.inp_25799.0 /gpfs/fs0/scratch/a/aspuru/rhickman/descriptor_computation/qchem25799/ 0
/scinet/niagara/software/commercial/qc52/exe/qcprog.exe_s fragments/C145/conf-1/spe_input.inp_25799.0 /gpfs/fs0/scratch/a/aspuru/rhickman/descriptor_computation/qchem25799/
                  Welcome to Q-Chem
     A Quantum Leap Into The Future Of Chemistry


 Q-Chem 5.2, Q-Chem, Inc., Pleasanton, CA (2019)

 License issued to: SRG Alan Aspuru-Guzik, University of Toronto

 Yihan Shao,  Zhengting Gan,  E. Epifanovsky,  A. T. B. Gilbert,  M. Wormit,  
 J. Kussmann,  A. W. Lange,  A. Behn,  Jia Deng,  Xintian Feng,  D. Ghosh,  
 M. Goldey,  P. R. Horn,  L. D. Jacobson,  I. Kaliman,  T. Kus,  A. Landau,  
 Jie Liu,  E. I. Proynov,  R. M. Richard,  R. P. Steele,  E. J. Sundstrom,  
 H. L. Woodcock III,  P. M. Zimmerman,  D. Zuev,  B. Albrecht,  E. Alguire,  
 S. A. Baeppler,  D. Barton,  Z. Benda,  Y. A. Bernard,  E. J. Berquist,  
 K. B. Bravaya,  H. Burton,  D. Casanova,  Chun-Min Chang,  Yunqing Chen,  
 A. Chien,  K. D. Closser,  M. P. Coons,  S. Coriani,  S. Dasgupta,  
 A. L. Dempwolff,  M. Diedenhofen,  Hainam Do,  R. G. Edgar,  Po-Tung Fang,  
 S. Faraji,  S. Fatehi,  Qingguo Feng,  K. D. Fenk,  J. Fosso-Tande,  
 J. Gayvert,  Qinghui Ge,  A. Ghysels,  G. Gidofalvi,  J. Gomes,  
 J. Gonthier,  A. Gunina,  D. Hait,  M. W. D. Hanson-Heine,  
 P. H. P. Harbach,  A. W. Hauser,  M. F. Herbst,  J. E. Herr,  
 E. G. Hohenstein,  Z. C. Holden,  Kerwin Hui,  B. C. Huynh,  T.-C. Jagau,  
 Hyunjun Ji,  B. Kaduk,  K. Khistyaev,  Jaehoon Kim,  P. Klunzinger,  K. Koh,  
 D. Kosenkov,  L. Koulias,  T. Kowalczyk,  C. M. Krauter,  A. Kunitsa,  
 Ka Un Lao,  A. Laurent,  K. V. Lawler,  Joonho Lee,  D. Lefrancois,  
 S. Lehtola,  D. S. Levine,  Yi-Pei Li,  You-Sheng Lin,  Fenglai Liu,  
 E. Livshits,  A. Luenser,  P. Manohar,  E. Mansoor,  S. F. Manzer,  
 Shan-Ping Mao,  Yuezhi Mao,  N. Mardirossian,  A. V. Marenich,  
 T. Markovich,  L. A. Martinez-Martinez,  S. A. Maurer,  N. J. Mayhall,  
 S. C. McKenzie,  J.-M. Mewes,  P. Morgante,  A. F. Morrison,  
 J. W. Mullinax,  K. Nanda,  T. S. Nguyen-Beck,  R. Olivares-Amaya,  
 J. A. Parkhill,  Zheng Pei,  T. M. Perrine,  F. Plasser,  P. Pokhilko,  
 S. Prager,  A. Prociuk,  E. Ramos,  D. R. Rehn,  F. Rob,  M. Scheurer,  
 M. Schneider,  N. Sergueev,  S. M. Sharada,  S. Sharma,  D. W. Small,  
 T. Stauch,  T. Stein,  Yu-Chuan Su,  A. J. W. Thom,  A. Tkatchenko,  
 T. Tsuchimochi,  N. M. Tubman,  L. Vogt,  M. L. Vidal,  O. Vydrov,  
 M. A. Watson,  J. Wenzel,  M. de Wergifosse,  T. A. Wesolowski,  A. White,  
 J. Witte,  A. Yamada,  Jun Yang,  K. Yao,  S. Yeganeh,  S. R. Yost,  
 Zhi-Qiang You,  A. Zech,  Igor Ying Zhang,  Xing Zhang,  Yan Zhao,  
 Ying Zhu,  B. R. Brooks,  G. K. L. Chan,  C. J. Cramer,  M. S. Gordon,  
 W. J. Hehre,  A. Klamt,  M. W. Schmidt,  C. D. Sherrill,  D. G. Truhlar,  
 A. Aspuru-Guzik,  R. Baer,  A. T. Bell,  N. A. Besley,  Jeng-Da Chai,  
 A. E. DePrince, III,  R. A. DiStasio Jr.,  A. Dreuw,  B. D. Dunietz,  
 T. R. Furlani,  Chao-Ping Hsu,  Yousung Jung,  Jing Kong,  D. S. Lambrecht,  
 WanZhen Liang,  C. Ochsenfeld,  V. A. Rassolov,  L. V. Slipchenko,  
 J. E. Subotnik,  T. Van Voorhis,  J. M. Herbert,  A. I. Krylov,  
 P. M. W. Gill,  M. Head-Gordon

 Contributors to earlier versions of Q-Chem not listed above: 
 R. D. Adamson,  B. Austin,  J. Baker,  G. J. O. Beran,  K. Brandhorst,  
 S. T. Brown,  E. F. C. Byrd,  A. K. Chakraborty,  C.-L. Cheng,  
 Siu Hung Chien,  D. M. Chipman,  D. L. Crittenden,  H. Dachsel,  
 R. J. Doerksen,  A. D. Dutoi,  L. Fusti-Molnar,  W. A. Goddard III,  
 A. Golubeva-Zadorozhnaya,  S. R. Gwaltney,  G. Hawkins,  A. Heyden,  
 S. Hirata,  G. Kedziora,  F. J. Keil,  C. Kelley,  Jihan Kim,  R. A. King,  
 R. Z. Khaliullin,  P. P. Korambath,  W. Kurlancheek,  A. M. Lee,  M. S. Lee,  
 S. V. Levchenko,  Ching Yeh Lin,  D. Liotard,  R. C. Lochan,  I. Lotan,  
 P. E. Maslen,  N. Nair,  D. P. O'Neill,  D. Neuhauser,  E. Neuscamman,  
 C. M. Oana,  R. Olson,  B. Peters,  R. Peverati,  P. A. Pieniazek,  
 Y. M. Rhee,  J. Ritchie,  M. A. Rohrdanz,  E. Rosta,  N. J. Russ,  
 H. F. Schaefer III,  N. E. Schultz,  N. Shenvi,  A. C. Simmonett,  A. Sodt,  
 D. Stuck,  K. S. Thanthiriwatte,  V. Vanovschi,  Tao Wang,  A. Warshel,  
 C. F. Williams,  Q. Wu,  X. Xu,  W. Zhang

 Please cite Q-Chem as follows:
 Y. Shao et al., Mol. Phys. 113, 184-215 (2015)
 DOI: 10.1080/00268976.2014.952696

 Q-Chem 5.2.1 for Intel X86 EM64T Linux

 Parts of Q-Chem use Armadillo 8.300.2 (Tropical Shenanigans).
 http://arma.sourceforge.net/

 Q-Chem begins on Mon Feb  7 12:26:43 2022  

Host: 
0

     Scratch files written to /gpfs/fs0/scratch/a/aspuru/rhickman/descriptor_computation/qchem25799//
 Jul1719 |scratch|qcdevops|jenkins|workspace|build_RNUM -1
Processing $rem in /scinet/niagara/software/commercial/qc52/config/preferences:
	 MEM_TOTAL  4000 
NAlpha2: 124
NElect   124
Mult     1

Checking the input file for inconsistencies... 	...done.

--------------------------------------------------------------
User input:
--------------------------------------------------------------
$molecule
0 1
C         7.10162403200000    0.50706545640000   -0.27758470730000
C         6.14950813370000   -0.36725423490000    0.02915905580000
C         4.71422898330000   -0.12793226380000    0.02907063760000
C         4.14664737800000    1.12905218950000   -0.19205606600000
C         2.78073459830000    1.29887315470000   -0.18141101370000
C         1.91026232800000    0.22531017170000    0.04136664380000
C         0.48301045140000    0.46773420600000    0.03327638930000
C        -0.48266292180000   -0.46443090270000    0.06377692170000
C        -1.90983126190000   -0.22170694180000    0.04942860950000
C        -2.78023715610000   -1.30780628700000   -0.10123746950000
C        -4.14604423810000   -1.13879946490000   -0.12739011270000
C        -4.71383218330000    0.13062955490000    0.00446914200000
C        -6.14881364870000    0.37048840960000   -0.01387694060000
C        -7.10511563340000   -0.53246686390000   -0.20190277820000
C        -3.84648258150000    1.21497216910000    0.16636214420000
C        -2.48007748840000    1.04766257580000    0.18721158400000
C         2.48044775950000   -1.03081209810000    0.27050074360000
C         3.84700756570000   -1.19830372900000    0.26654271460000
H         8.14232641090000    0.23286529850000   -0.25142202330000
H         6.89043441340000    1.52149261670000   -0.56936503440000
H         6.43596324930000   -1.37582510100000    0.30359625430000
H         4.78262685490000    1.98326606880000   -0.36670138050000
H         2.36650708920000    2.28285436160000   -0.35389661530000
H         0.20851747600000    1.51301041770000   -0.02563797290000
H        -0.20825075860000   -1.51128263220000    0.07898605270000
H        -2.36600728490000   -2.30142589130000   -0.20469294230000
H        -4.78150553990000   -2.00276069420000   -0.24722231240000
H        -6.43200059300000    1.40510662810000    0.14095057750000
H        -6.89882198600000   -1.57602198330000   -0.36666930930000
H        -8.14504904200000   -0.25418224320000   -0.19953284440000
H        -4.26144763100000    2.20741078660000    0.27825647170000
H        -1.84729330390000    1.91135838110000    0.32335442110000
H         1.84743040710000   -1.88297493780000    0.46552463980000
H         4.26211194400000   -2.18000313610000    0.44980613910000
$end

$rem
BASIS = 6-31G*
GUI = 2
METHOD = B3LYP
PRINT_ORBITALS false
MOLDEN_FORMAT false
--------------------------------------------------------------
 ----------------------------------------------------------------
             Standard Nuclear Orientation (Angstroms)
    I     Atom           X                Y                Z
 ----------------------------------------------------------------
    1      C       7.1103378619    -0.3786204325     0.2571618837
    2      C       6.1411766659     0.4879879737    -0.0162751092
    3      C       4.7108385471     0.2208769982    -0.0255404204
    4      C       4.1680065239    -1.0544421046     0.1475214015
    5      C       2.8056599402    -1.2503539777     0.1301858008
    6      C       1.9142883797    -0.1862844272    -0.0517539394
    7      C       0.4920410441    -0.4566423008    -0.0531397719
    8      C      -0.4916466995     0.4569891790    -0.0483358083
    9      C      -1.9138011180     0.1860953018    -0.0434795028
   10      C      -2.8051391731     1.2484897625     0.1482311044
   11      C      -4.1673751030     1.0519940107     0.1676975584
   12      C      -4.7103707646    -0.2223389881    -0.0124445230
   13      C      -6.1403904361    -0.4906748495    -0.0034857454
   14      C      -7.1140150165     0.3856462323     0.2185772312
   15      C      -3.8221290461    -1.2826110192    -0.2153076556
   16      C      -2.4592591107    -1.0880009470    -0.2295391867
   17      C       2.4597360111     1.0885285890    -0.2328496978
   18      C       3.8227711395     1.2823801745    -0.2222847575
   19      H       8.1454792881    -0.0833703475     0.2416290396
   20      H       6.9191391855    -1.4073369931     0.5101136219
   21      H       6.4077505605     1.5116626056    -0.2521057853
   22      H       4.8206244742    -1.9021079138     0.2896647069
   23      H       2.4108005998    -2.2480774347     0.2650514092
   24      H       0.2380207641    -1.5085594510    -0.0340698743
   25      H      -0.2377131751     1.5088168111    -0.0236721893
   26      H      -2.4103090674     2.2453493882     0.2894734969
   27      H      -4.8194981926     1.8982100036     0.3201895171
   28      H      -6.4034320422    -1.5239852171    -0.1975992726
   29      H      -6.9280207404     1.4260070762     0.4229489750
   30      H      -8.1483241265     0.0874154569     0.2054428961
   31      H      -4.2177220069    -2.2779841695    -0.3649380115
   32      H      -1.8098270497    -1.9333837330    -0.3983203575
   33      H       1.8101080752     1.9349779834    -0.3954343262
   34      H       4.2185455780     2.2782508841    -0.3680070182
 ----------------------------------------------------------------
 Molecular Point Group                 C1    NOp =  1
 Largest Abelian Subgroup              C1    NOp =  1
 Nuclear Repulsion Energy =        1067.14045980 hartrees
 There are       62 alpha and       62 beta electrons
 Requested basis set is 6-31G(d)
 There are 104 shells and 302 basis functions

 Total QAlloc Memory Limit   4000 MB
 Mega-Array Size       188 MB
 MEM_STATIC part       192 MB
 A cutoff of  1.0D-08 yielded   2658 shell pairs
 There are     24053 function pairs
 Smallest overlap matrix eigenvalue = 3.69E-04

 Scale SEOQF with 1.000000e-02/1.000000e-01/1.000000e+00

 Standard Electronic Orientation quadrupole field applied
 Nucleus-field energy     =     0.0000000127 hartrees
 Guess from superposition of atomic densities
 Warning:  Energy on first SCF cycle will be non-variational
 SAD guess density has 124.000000 electrons

 -----------------------------------------------------------------------
  General SCF calculation program by
  Eric Jon Sundstrom, Paul Horn, Yuezhi Mao, Dmitri Zuev, Alec White,
  David Stuck, Shaama M.S., Shane Yost, Joonho Lee, David Small,
  Daniel Levine, Susi Lehtola, Hugh Burton, Evgeny Epifanovsky,
  Bang C. Huynh
 -----------------------------------------------------------------------
 Exchange:     0.2000 Hartree-Fock + 0.0800 Slater + 0.7200 B88
 Correlation:  0.1900 VWN1RPA + 0.8100 LYP
 Using SG-1 standard quadrature grid
 A restricted SCF calculation will be
 performed using DIIS
 SCF converges when DIIS error is below 1.0e-05
 ---------------------------------------
  Cycle       Energy         DIIS error
 ---------------------------------------
    1    -699.8696901881      4.71e-02  
    2    -695.2496865027      4.45e-03  
    3    -695.3002995213      4.06e-03  
    4    -695.5060997730      3.67e-04  
    5    -695.5064997625      3.02e-04  
    6    -695.5076918254      7.94e-05  
    7    -695.5077647485      3.10e-05  
    8    -695.5077757924      6.02e-06  Convergence criterion met
 ---------------------------------------
 SCF time:   CPU 48.46s  wall 49.00s 
 SCF   energy in the final basis set =     -695.5077757924
 Total energy in the final basis set =     -695.5077757924
 
 --------------------------------------------------------------
 
                    Orbital Energies (a.u.)
 --------------------------------------------------------------
 
 Alpha MOs
 -- Occupied --
-10.1958 -10.1958 -10.1941 -10.1941 -10.1901 -10.1897 -10.1897 -10.1893
-10.1874 -10.1874 -10.1874 -10.1874 -10.1865 -10.1865 -10.1864 -10.1864
-10.1795 -10.1795  -0.8694  -0.8646  -0.8169  -0.7971  -0.7681  -0.7507
 -0.7498  -0.7360  -0.7018  -0.6499  -0.6231  -0.6114  -0.5981  -0.5759
 -0.5617  -0.5530  -0.5094  -0.5058  -0.4846  -0.4695  -0.4601  -0.4486
 -0.4465  -0.4396  -0.4212  -0.4211  -0.4152  -0.4036  -0.3915  -0.3852
 -0.3788  -0.3772  -0.3561  -0.3501  -0.3424  -0.3380  -0.3324  -0.3298
 -0.3065  -0.2684  -0.2542  -0.2540  -0.2320  -0.1926
 -- Virtual --
 -0.0631  -0.0206   0.0023   0.0041   0.0235   0.0729   0.0936   0.1015
  0.1022   0.1059   0.1131   0.1239   0.1243   0.1316   0.1506   0.1630
  0.1724   0.1845   0.1962   0.2033   0.2040   0.2147   0.2235   0.2334
  0.2364   0.2565   0.2722   0.2857   0.3103   0.3110   0.3285   0.3369
  0.3464   0.3471   0.3637   0.3797   0.3938   0.4283   0.4366   0.4533
  0.4859   0.4905   0.5046   0.5138   0.5270   0.5366   0.5435   0.5464
  0.5513   0.5607   0.5640   0.5709   0.5781   0.5811   0.5836   0.5869
  0.5936   0.5981   0.6000   0.6017   0.6030   0.6091   0.6140   0.6225
  0.6260   0.6313   0.6323   0.6374   0.6425   0.6666   0.6739   0.6921
  0.6979   0.7072   0.7272   0.7296   0.7455   0.7470   0.7938   0.8032
  0.8104   0.8162   0.8278   0.8333   0.8428   0.8536   0.8586   0.8636
  0.8830   0.8877   0.8904   0.8923   0.9098   0.9297   0.9441   0.9509
  0.9595   0.9703   0.9755   0.9868   0.9875   0.9933   0.9939   1.0152
  1.0359   1.0470   1.0523   1.0709   1.0991   1.1089   1.1437   1.1549
  1.1732   1.1768   1.1836   1.1878   1.2053   1.2369   1.2407   1.2590
  1.2820   1.2962   1.3215   1.3277   1.3360   1.3430   1.3496   1.3870
  1.4385   1.4449   1.4541   1.4570   1.4592   1.4636   1.4877   1.4996
  1.5038   1.5059   1.5183   1.5209   1.5238   1.5277   1.5595   1.5866
  1.6782   1.6788   1.7022   1.7702   1.7906   1.8069   1.8111   1.8194
  1.8240   1.8333   1.8481   1.8534   1.9144   1.9210   1.9252   1.9661
  1.9725   1.9869   1.9905   1.9989   2.0070   2.0135   2.0214   2.0364
  2.0437   2.0869   2.1160   2.1234   2.1335   2.1400   2.1463   2.1576
  2.1731   2.1901   2.2259   2.2293   2.2449   2.2480   2.2627   2.2705
  2.3186   2.3269   2.3274   2.3336   2.3512   2.3880   2.3892   2.4455
  2.4460   2.4891   2.5261   2.5490   2.5518   2.5763   2.5949   2.6242
  2.6456   2.6571   2.6786   2.6872   2.6886   2.6968   2.7321   2.7854
  2.7947   2.8048   2.8685   2.9198   2.9294   2.9382   2.9750   2.9970
  3.1205   3.1220   3.2421   3.2472   3.4593   3.4856   4.0906   4.0923
  4.0960   4.1092   4.1234   4.1247   4.1439   4.1511   4.1847   4.2204
  4.2772   4.3243   4.3339   4.3360   4.4848   4.5508   4.7474   4.7846
 --------------------------------------------------------------
 
          Ground-State Mulliken Net Atomic Charges

     Atom                 Charge (a.u.)
  ----------------------------------------
      1 C                    -0.352702
      2 C                    -0.114463
      3 C                     0.180162
      4 C                    -0.184560
      5 C                    -0.200807
      6 C                     0.190713
      7 C                    -0.190785
      8 C                    -0.190792
      9 C                     0.190699
     10 C                    -0.200814
     11 C                    -0.184596
     12 C                     0.180779
     13 C                    -0.114225
     14 C                    -0.353088
     15 C                    -0.201381
     16 C                    -0.179952
     17 C                    -0.179965
     18 C                    -0.201005
     19 H                     0.144380
     20 H                     0.142615
     21 H                     0.126766
     22 H                     0.127382
     23 H                     0.126839
     24 H                     0.128250
     25 H                     0.128235
     26 H                     0.126842
     27 H                     0.127279
     28 H                     0.126598
     29 H                     0.142590
     30 H                     0.144412
     31 H                     0.128058
     32 H                     0.129248
     33 H                     0.129260
     34 H                     0.128025
  ----------------------------------------
  Sum of atomic charges =     0.000000

 -----------------------------------------------------------------
                    Cartesian Multipole Moments
 -----------------------------------------------------------------
    Charge (ESU x 10^10)
                 0.0000
    Dipole Moment (Debye)
         X       0.0049      Y       0.0010      Z      -0.0114
       Tot       0.0124
    Quadrupole Moments (Debye-Ang)
        XX     -95.6770     XY       0.2778     YY     -93.3531
        XZ       0.0018     YZ      -0.0611     ZZ    -112.4991
    Octopole Moments (Debye-Ang^2)
       XXX       0.1687    XXY       0.1614    XYY      -0.2897
       YYY       0.0052    XXZ       5.2744    XYZ     -13.9692
       YYZ      -0.2014    XZZ       0.3354    YZZ      -0.0264
       ZZZ      -0.2827
    Hexadecapole Moments (Debye-Ang^3)
      XXXX  -10832.8461   XXXY      22.7553   XXYY   -1895.1866
      XYYY       1.2998   YYYY    -642.2885   XXXZ       2.7886
      XXYZ      -4.3210   XYYZ      -0.1452   YYYZ      -0.0122
      XXZZ   -2165.3311   XYZZ      -0.9838   YYZZ    -145.4938
      XZZZ       0.0102   YZZZ      -0.1050   ZZZZ    -138.0458
 -----------------------------------------------------------------
Archival summary:
1\1\nia1977.scinet.local\SP\ProcedureUnspecified\6-31G*\1816\rhickman\MonFeb712:27:332022MonFeb712:27:332022\0\\#,ProcedureUnspecified,6-31G*,\\0,1\C\C,1,1.39838\H,2,1.07932,1,119.979\C,2,1.37679,1,120.899,3,-179.26,0\H,4,1.08149,2,119.401,1,179.799,0\C,4,1.39791,2,121.54,1,-0.284921,0\C,6,1.3968,4,117.636,2,0.65079,0\H,7,1.07919,6,119.898,4,179.229,0\C,7,1.37647,6,120.866,4,-0.305626,0\H,9,1.08146,7,119.413,6,179.907,0\C,1,1.44772,2,123.595,3,-0.697743,0\H,11,1.08232,1,114.334,2,172.152,0\C,11,1.34253,1,126.351,2,-9.27604,0\H,13,1.08233,11,119.309,1,-1.16337,0\C,13,1.44773,11,126.33,1,-179.693,0\C,15,1.39838,13,123.588,11,-9.20691,0\H,16,1.07932,15,119.983,13,-0.661488,0\C,16,1.37677,15,120.9,13,-179.959,0\H,18,1.0815,16,119.39,15,179.805,0\C,18,1.39796,16,121.551,15,-0.156203,0\C,20,1.39686,18,117.622,16,0.427225,0\H,21,1.07917,20,119.913,18,179.567,0\C,21,1.37647,20,120.871,18,-0.15821,0\H,23,1.08147,21,119.41,20,179.953,0\C,20,1.45501,18,119.045,16,-179.801,0\H,25,1.08379,20,114.41,18,-2.15074,0\C,25,1.32861,20,126.843,18,177.571,0\H,27,1.07644,25,122.86,20,-0.0307216,0\H,27,1.07653,25,121.286,20,-179.901,0\C,6,1.45509,4,119.076,2,-179.628,0\H,30,1.08378,6,114.443,4,-4.93817,0\C,30,1.32855,6,126.773,4,174.455,0\H,32,1.07648,30,122.83,6,-0.0583276,0\H,32,1.07654,30,121.303,6,-179.773,0\\\@

 Total job time:  49.30s(wall), 48.72s(cpu) 
 Mon Feb  7 12:27:33 2022

        *************************************************************
        *                                                           *
        *  Thank you very much for using Q-Chem.  Have a nice day.  *
        *                                                           *
        *************************************************************


