
Running Job 1 of 1 fragments/C102/conf-0/spe_input.inp
qchem fragments/C102/conf-0/spe_input.inp_53059.0 /gpfs/fs0/scratch/a/aspuru/rhickman/descriptor_computation/qchem53059/ 0
/scinet/niagara/software/commercial/qc52/exe/qcprog.exe_s fragments/C102/conf-0/spe_input.inp_53059.0 /gpfs/fs0/scratch/a/aspuru/rhickman/descriptor_computation/qchem53059/
                  Welcome to Q-Chem
     A Quantum Leap Into The Future Of Chemistry


 Q-Chem 5.2, Q-Chem, Inc., Pleasanton, CA (2019)

 License issued to: SRG Alan Aspuru-Guzik, University of Toronto

 Yihan Shao,  Zhengting Gan,  E. Epifanovsky,  A. T. B. Gilbert,  M. Wormit,  
 J. Kussmann,  A. W. Lange,  A. Behn,  Jia Deng,  Xintian Feng,  D. Ghosh,  
 M. Goldey,  P. R. Horn,  L. D. Jacobson,  I. Kaliman,  T. Kus,  A. Landau,  
 Jie Liu,  E. I. Proynov,  R. M. Richard,  R. P. Steele,  E. J. Sundstrom,  
 H. L. Woodcock III,  P. M. Zimmerman,  D. Zuev,  B. Albrecht,  E. Alguire,  
 S. A. Baeppler,  D. Barton,  Z. Benda,  Y. A. Bernard,  E. J. Berquist,  
 K. B. Bravaya,  H. Burton,  D. Casanova,  Chun-Min Chang,  Yunqing Chen,  
 A. Chien,  K. D. Closser,  M. P. Coons,  S. Coriani,  S. Dasgupta,  
 A. L. Dempwolff,  M. Diedenhofen,  Hainam Do,  R. G. Edgar,  Po-Tung Fang,  
 S. Faraji,  S. Fatehi,  Qingguo Feng,  K. D. Fenk,  J. Fosso-Tande,  
 J. Gayvert,  Qinghui Ge,  A. Ghysels,  G. Gidofalvi,  J. Gomes,  
 J. Gonthier,  A. Gunina,  D. Hait,  M. W. D. Hanson-Heine,  
 P. H. P. Harbach,  A. W. Hauser,  M. F. Herbst,  J. E. Herr,  
 E. G. Hohenstein,  Z. C. Holden,  Kerwin Hui,  B. C. Huynh,  T.-C. Jagau,  
 Hyunjun Ji,  B. Kaduk,  K. Khistyaev,  Jaehoon Kim,  P. Klunzinger,  K. Koh,  
 D. Kosenkov,  L. Koulias,  T. Kowalczyk,  C. M. Krauter,  A. Kunitsa,  
 Ka Un Lao,  A. Laurent,  K. V. Lawler,  Joonho Lee,  D. Lefrancois,  
 S. Lehtola,  D. S. Levine,  Yi-Pei Li,  You-Sheng Lin,  Fenglai Liu,  
 E. Livshits,  A. Luenser,  P. Manohar,  E. Mansoor,  S. F. Manzer,  
 Shan-Ping Mao,  Yuezhi Mao,  N. Mardirossian,  A. V. Marenich,  
 T. Markovich,  L. A. Martinez-Martinez,  S. A. Maurer,  N. J. Mayhall,  
 S. C. McKenzie,  J.-M. Mewes,  P. Morgante,  A. F. Morrison,  
 J. W. Mullinax,  K. Nanda,  T. S. Nguyen-Beck,  R. Olivares-Amaya,  
 J. A. Parkhill,  Zheng Pei,  T. M. Perrine,  F. Plasser,  P. Pokhilko,  
 S. Prager,  A. Prociuk,  E. Ramos,  D. R. Rehn,  F. Rob,  M. Scheurer,  
 M. Schneider,  N. Sergueev,  S. M. Sharada,  S. Sharma,  D. W. Small,  
 T. Stauch,  T. Stein,  Yu-Chuan Su,  A. J. W. Thom,  A. Tkatchenko,  
 T. Tsuchimochi,  N. M. Tubman,  L. Vogt,  M. L. Vidal,  O. Vydrov,  
 M. A. Watson,  J. Wenzel,  M. de Wergifosse,  T. A. Wesolowski,  A. White,  
 J. Witte,  A. Yamada,  Jun Yang,  K. Yao,  S. Yeganeh,  S. R. Yost,  
 Zhi-Qiang You,  A. Zech,  Igor Ying Zhang,  Xing Zhang,  Yan Zhao,  
 Ying Zhu,  B. R. Brooks,  G. K. L. Chan,  C. J. Cramer,  M. S. Gordon,  
 W. J. Hehre,  A. Klamt,  M. W. Schmidt,  C. D. Sherrill,  D. G. Truhlar,  
 A. Aspuru-Guzik,  R. Baer,  A. T. Bell,  N. A. Besley,  Jeng-Da Chai,  
 A. E. DePrince, III,  R. A. DiStasio Jr.,  A. Dreuw,  B. D. Dunietz,  
 T. R. Furlani,  Chao-Ping Hsu,  Yousung Jung,  Jing Kong,  D. S. Lambrecht,  
 WanZhen Liang,  C. Ochsenfeld,  V. A. Rassolov,  L. V. Slipchenko,  
 J. E. Subotnik,  T. Van Voorhis,  J. M. Herbert,  A. I. Krylov,  
 P. M. W. Gill,  M. Head-Gordon

 Contributors to earlier versions of Q-Chem not listed above: 
 R. D. Adamson,  B. Austin,  J. Baker,  G. J. O. Beran,  K. Brandhorst,  
 S. T. Brown,  E. F. C. Byrd,  A. K. Chakraborty,  C.-L. Cheng,  
 Siu Hung Chien,  D. M. Chipman,  D. L. Crittenden,  H. Dachsel,  
 R. J. Doerksen,  A. D. Dutoi,  L. Fusti-Molnar,  W. A. Goddard III,  
 A. Golubeva-Zadorozhnaya,  S. R. Gwaltney,  G. Hawkins,  A. Heyden,  
 S. Hirata,  G. Kedziora,  F. J. Keil,  C. Kelley,  Jihan Kim,  R. A. King,  
 R. Z. Khaliullin,  P. P. Korambath,  W. Kurlancheek,  A. M. Lee,  M. S. Lee,  
 S. V. Levchenko,  Ching Yeh Lin,  D. Liotard,  R. C. Lochan,  I. Lotan,  
 P. E. Maslen,  N. Nair,  D. P. O'Neill,  D. Neuhauser,  E. Neuscamman,  
 C. M. Oana,  R. Olson,  B. Peters,  R. Peverati,  P. A. Pieniazek,  
 Y. M. Rhee,  J. Ritchie,  M. A. Rohrdanz,  E. Rosta,  N. J. Russ,  
 H. F. Schaefer III,  N. E. Schultz,  N. Shenvi,  A. C. Simmonett,  A. Sodt,  
 D. Stuck,  K. S. Thanthiriwatte,  V. Vanovschi,  Tao Wang,  A. Warshel,  
 C. F. Williams,  Q. Wu,  X. Xu,  W. Zhang

 Please cite Q-Chem as follows:
 Y. Shao et al., Mol. Phys. 113, 184-215 (2015)
 DOI: 10.1080/00268976.2014.952696

 Q-Chem 5.2.1 for Intel X86 EM64T Linux

 Parts of Q-Chem use Armadillo 8.300.2 (Tropical Shenanigans).
 http://arma.sourceforge.net/

 Q-Chem begins on Mon Feb  7 13:54:07 2022  

Host: 
0

     Scratch files written to /gpfs/fs0/scratch/a/aspuru/rhickman/descriptor_computation/qchem53059//
 Jul1719 |scratch|qcdevops|jenkins|workspace|build_RNUM -1
Processing $rem in /scinet/niagara/software/commercial/qc52/config/preferences:
	 MEM_TOTAL  4000 
NAlpha2: 118
NElect   118
Mult     1

Checking the input file for inconsistencies... 	...done.

--------------------------------------------------------------
User input:
--------------------------------------------------------------
$molecule
0 1
C         4.15841606840000   -2.05265989860000    0.39833554200000
C         2.99295033000000   -2.06845603960000   -0.23724094840000
C         1.94026610800000   -1.05632089480000   -0.13908138430000
C         0.62236001490000   -1.49719991540000   -0.14305817140000
C        -0.42245104350000   -0.60102378520000   -0.01453349060000
O        -1.71510358820000   -1.18280217680000   -0.01524620830000
C        -2.77941570510000   -0.42126844650000    0.01646713660000
F        -2.91839260360000    0.30877177220000    1.14172487260000
F        -2.86515898000000    0.46969309000000   -0.99224204260000
F        -3.86512615660000   -1.18759631510000   -0.06641850270000
C        -0.17960098030000    0.75076305130000    0.11780701430000
C         1.12876200310000    1.22505028000000    0.08908953750000
C         1.37852613880000    2.65834453250000    0.24896188570000
C         0.58328378100000    3.62094136030000   -0.19857947420000
C         2.20371973410000    0.32672279360000   -0.06146406730000
N         3.49341810040000    0.80353864340000   -0.13157431670000
H         4.86521483200000   -2.85771398090000    0.28740155060000
H         4.43047001910000   -1.26975361210000    1.08586747610000
H         2.74021554900000   -2.91990511010000   -0.85748354090000
H         0.39997333250000   -2.54866758790000   -0.22482616700000
H        -0.97702327850000    1.46119450730000    0.25927321940000
H         2.27974853380000    2.91975312760000    0.78979816070000
H        -0.31172987000000    3.41026888900000   -0.75924034890000
H         0.80665525290000    4.66046581180000   -0.03065565000000
H         3.59358740110000    1.75724364180000   -0.43863493110000
H         4.16824079230000    0.16297813900000   -0.52079022100000
$end

$rem
BASIS = 6-31G*
GUI = 2
METHOD = B3LYP
PRINT_ORBITALS false
MOLDEN_FORMAT false
--------------------------------------------------------------
 ----------------------------------------------------------------
             Standard Nuclear Orientation (Angstroms)
    I     Atom           X                Y                Z
 ----------------------------------------------------------------
    1      C       4.0636999065     2.0001876121    -0.3949019544
    2      C       2.8978290629     2.0374159156     0.2390354321
    3      C       1.8268999971     1.0447454269     0.1394705806
    4      C       0.5172961242     1.5097184478     0.1415638609
    5      C      -0.5435920292     0.6328401091     0.0116365627
    6      O      -1.8253582167     1.2382253869     0.0104910229
    7      C      -2.9034108987     0.4963339401    -0.0226622092
    8      F      -3.0541727708    -0.2311456488    -1.1480610617
    9      F      -3.0068937442    -0.3928061873     0.9859902142
   10      F      -3.9750010206     1.2824508426     0.0586424163
   11      C      -0.3253865427    -0.7231858110    -0.1202644734
   12      C       0.9740173114    -1.2213832045    -0.0896745030
   13      C       1.1976796446    -2.6590323328    -0.2490917229
   14      C       0.3842915546    -3.6068401207     0.1974018846
   15      C       2.0650555769    -0.3429045338     0.0623238934
   16      N       3.3456935142    -0.8432837798     0.1342805577
   17      H       4.7849866162     2.7921559612    -0.2830335744
   18      H       4.3223156357     1.2123564248    -1.0819941541
   19      H       2.6598806080     2.8934174668     0.8588605203
   20      H       0.3141142402     2.5650954735     0.2229429950
   21      H      -1.1355034128    -1.4188885957    -0.2627992226
   22      H       2.0947148224    -2.9369767773    -0.7886423792
   23      H      -0.5074941538    -3.3797351741     0.7567895279
   24      H       0.5887979803    -4.6503024680     0.0298675234
   25      H       3.4279258271    -1.7986351015     0.4415508500
   26      H       4.0316025459    -0.2151675962     0.5243975984
 ----------------------------------------------------------------
 Molecular Point Group                 C1    NOp =  1
 Largest Abelian Subgroup              C1    NOp =  1
 Nuclear Repulsion Energy =        1111.35414876 hartrees
 There are       59 alpha and       59 beta electrons
 Requested basis set is 6-31G(d)
 There are 84 shells and 260 basis functions

 Total QAlloc Memory Limit   4000 MB
 Mega-Array Size       188 MB
 MEM_STATIC part       192 MB
 A cutoff of  1.0D-08 yielded   2164 shell pairs
 There are     22201 function pairs
 Smallest overlap matrix eigenvalue = 2.97E-04

 Scale SEOQF with 1.000000e-01/1.000000e-01/1.000000e+00

 Standard Electronic Orientation quadrupole field applied
 Nucleus-field energy     =     0.0000000207 hartrees
 Guess from superposition of atomic densities
 Warning:  Energy on first SCF cycle will be non-variational
 SAD guess density has 118.000000 electrons

 -----------------------------------------------------------------------
  General SCF calculation program by
  Eric Jon Sundstrom, Paul Horn, Yuezhi Mao, Dmitri Zuev, Alec White,
  David Stuck, Shaama M.S., Shane Yost, Joonho Lee, David Small,
  Daniel Levine, Susi Lehtola, Hugh Burton, Evgeny Epifanovsky,
  Bang C. Huynh
 -----------------------------------------------------------------------
 Exchange:     0.2000 Hartree-Fock + 0.0800 Slater + 0.7200 B88
 Correlation:  0.1900 VWN1RPA + 0.8100 LYP
 Using SG-1 standard quadrature grid
 A restricted SCF calculation will be
 performed using DIIS
 SCF converges when DIIS error is below 1.0e-05
 ---------------------------------------
  Cycle       Energy         DIIS error
 ---------------------------------------
    1    -858.2646360596      4.97e-02  
    2    -854.3665125540      6.18e-03  
    3    -854.2544199833      7.78e-03  
    4    -854.6403931494      9.72e-04  
    5    -854.6464922711      3.56e-04  
    6    -854.6472760660      1.74e-04  
    7    -854.6475339247      3.47e-05  
    8    -854.6475431813      1.31e-05  
    9    -854.6475444590      3.10e-06  Convergence criterion met
 ---------------------------------------
 SCF time:   CPU 44.46s  wall 44.00s 
 SCF   energy in the final basis set =     -854.6475444590
 Total energy in the final basis set =     -854.6475444590
 
 --------------------------------------------------------------
 
                    Orbital Energies (a.u.)
 --------------------------------------------------------------
 
 Alpha MOs
 -- Occupied --
-24.7223 -24.7204 -24.7198 -19.2144 -14.3475 -10.4739 -10.2562 -10.2371
-10.2023 -10.2019 -10.2001 -10.1980 -10.1969 -10.1965 -10.1885 -10.1874
 -1.3183  -1.2182  -1.2129  -1.1119  -0.9376  -0.8618  -0.8165  -0.7898
 -0.7472  -0.7344  -0.6891  -0.6506  -0.6364  -0.6161  -0.5943  -0.5899
 -0.5627  -0.5601  -0.5310  -0.5181  -0.4788  -0.4745  -0.4693  -0.4625
 -0.4574  -0.4550  -0.4364  -0.4327  -0.4295  -0.4126  -0.4101  -0.3986
 -0.3957  -0.3943  -0.3809  -0.3802  -0.3624  -0.3436  -0.3112  -0.3104
 -0.2817  -0.2343  -0.2008
 -- Virtual --
 -0.0401  -0.0154   0.0329   0.0504   0.0890   0.0999   0.1191   0.1331
  0.1363   0.1459   0.1533   0.1736   0.1777   0.1855   0.1906   0.1945
  0.2015   0.2125   0.2453   0.2725   0.2831   0.2968   0.3232   0.3304
  0.3353   0.3659   0.3755   0.3828   0.4111   0.4527   0.4758   0.4810
  0.4944   0.5116   0.5221   0.5279   0.5328   0.5470   0.5489   0.5654
  0.5707   0.5810   0.5937   0.6020   0.6080   0.6264   0.6343   0.6417
  0.6614   0.6769   0.6821   0.6984   0.7107   0.7220   0.7321   0.7596
  0.8082   0.8217   0.8335   0.8413   0.8469   0.8589   0.8652   0.8749
  0.8848   0.9025   0.9287   0.9373   0.9527   0.9653   0.9742   0.9856
  0.9920   0.9985   1.0067   1.0236   1.0380   1.0459   1.0815   1.0968
  1.1235   1.1284   1.1363   1.1527   1.1655   1.1693   1.1752   1.2187
  1.2287   1.2442   1.2791   1.3101   1.3210   1.3322   1.3358   1.3489
  1.3546   1.3675   1.3883   1.4043   1.4128   1.4249   1.4618   1.4823
  1.5015   1.5121   1.5390   1.5587   1.5856   1.6391   1.6469   1.6692
  1.6791   1.7146   1.7306   1.7538   1.7637   1.8105   1.8180   1.8215
  1.8365   1.8434   1.8485   1.8571   1.8708   1.8882   1.9033   1.9227
  1.9353   1.9514   1.9577   1.9683   1.9727   1.9806   1.9921   2.0095
  2.0483   2.0713   2.0950   2.0998   2.1030   2.1268   2.1431   2.1640
  2.1746   2.1824   2.2118   2.2435   2.2582   2.2662   2.2930   2.3173
  2.3480   2.3556   2.3752   2.3864   2.3986   2.4450   2.4658   2.4746
  2.5133   2.5520   2.5730   2.5908   2.6010   2.6417   2.6640   2.6986
  2.7149   2.7457   2.7588   2.7825   2.7983   2.8089   2.8839   2.9173
  2.9711   3.0105   3.0356   3.0706   3.0861   3.1195   3.1897   3.3222
  3.4785   3.9009   4.1077   4.1131   4.1171   4.1376   4.1675   4.2538
  4.2919   4.3067   4.3251   4.3993   4.4716   4.5210   4.7953   4.9721
  5.9139
 --------------------------------------------------------------
 
          Ground-State Mulliken Net Atomic Charges

     Atom                 Charge (a.u.)
  ----------------------------------------
      1 C                    -0.362390
      2 C                    -0.143661
      3 C                     0.139280
      4 C                    -0.252153
      5 C                     0.341729
      6 O                    -0.525258
      7 C                     0.972412
      8 F                    -0.279382
      9 F                    -0.281021
     10 F                    -0.256739
     11 C                    -0.242113
     12 C                     0.126593
     13 C                    -0.153655
     14 C                    -0.336524
     15 C                     0.201636
     16 N                    -0.817337
     17 H                     0.147692
     18 H                     0.168803
     19 H                     0.141834
     20 H                     0.147370
     21 H                     0.162858
     22 H                     0.141863
     23 H                     0.152969
     24 H                     0.146368
     25 H                     0.329181
     26 H                     0.329645
  ----------------------------------------
  Sum of atomic charges =     0.000000

 -----------------------------------------------------------------
                    Cartesian Multipole Moments
 -----------------------------------------------------------------
    Charge (ESU x 10^10)
                 0.0000
    Dipole Moment (Debye)
         X       3.8558      Y      -0.8037      Z       0.9792
       Tot       4.0586
    Quadrupole Moments (Debye-Ang)
        XX     -85.6672     XY       0.8843     YY     -81.7237
        XZ       2.4452     YZ       0.3821     ZZ     -92.5457
    Octopole Moments (Debye-Ang^2)
       XXX      -5.5847    XXY      -3.5246    XYY      -7.2417
       YYY      -4.7226    XXZ       9.5485    XYZ       0.9208
       YYZ       5.2593    XZZ     -26.7841    YZZ       4.4647
       ZZZ       0.3049
    Hexadecapole Moments (Debye-Ang^3)
      XXXX   -3113.2897   XXXY      -9.9976   XXYY    -748.8848
      XYYY     -35.5373   YYYY   -1439.6733   XXXZ      36.4416
      XXYZ     -12.3595   XYYZ       6.2268   YYYZ      14.5056
      XXZZ    -580.1841   XYZZ     -17.7423   YYZZ    -302.8238
      XZZZ       2.9502   YZZZ      -0.0806   ZZZZ    -177.3822
 -----------------------------------------------------------------
Archival summary:
1\1\nia1977.scinet.local\SP\ProcedureUnspecified\6-31G*\3111110\rhickman\MonFeb713:54:522022MonFeb713:54:522022\0\\#,ProcedureUnspecified,6-31G*,\\0,1\O\C,1,1.30908\F,2,1.3315,1,109.064\F,2,1.34851,1,114.767,3,119.019,0\F,2,1.34858,1,114.702,3,-119.156,0\C,1,1.41754,2,120.174,3,176.582,0\C,6,1.37979,1,124.238,2,5.02011,0\H,7,1.07732,6,121.896,1,1.75025,0\C,6,1.38249,1,115.029,2,-175.72,0\H,9,1.07783,6,118.914,1,-0.497909,0\C,9,1.3897,6,120.716,1,-179.159,0\C,7,1.39197,6,119.82,1,-179.187,0\C,12,1.40897,7,120.137,6,-0.623061,0\N,13,1.3768,12,119.954,7,177.961,0\H,14,1.00691,13,115.896,12,-23.741,0\H,14,1.00856,13,115.243,12,-161.623,0\C,11,1.46362,9,117.548,6,178.118,0\H,17,1.0833,11,114.464,9,34.665,0\C,17,1.3276,11,126.232,9,-142.096,0\H,19,1.07687,17,122.417,11,1.38689,0\H,19,1.07703,17,121.192,11,178.236,0\C,12,1.46365,7,119.459,6,-179.149,0\H,22,1.08307,12,115.651,7,144.773,0\C,22,1.32638,12,124.856,7,-34.2811,0\H,24,1.07643,22,121.587,12,178.503,0\H,24,1.07693,22,122.139,12,-2.31815,0\\\@

 Total job time:  45.03s(wall), 44.68s(cpu) 
 Mon Feb  7 13:54:52 2022

        *************************************************************
        *                                                           *
        *  Thank you very much for using Q-Chem.  Have a nice day.  *
        *                                                           *
        *************************************************************


