23
 energy: -42.291109894142 gnorm: 0.000035649646 xtb: 6.5.0 (unknown)
C            1.98295384590000        2.66831218680000       -0.36419853090000
C            0.71824458450000        2.67524912060000       -0.76436598310000
C           -0.29555790430000        1.67073294070000       -0.45251151800000
C           -1.61049328580000        2.09652276890000       -0.27397429870000
C           -2.61726726130000        1.21595474160000        0.06715739620000
C           -2.35767010770000       -0.14018152230000        0.21084130780000
C           -3.42082034380000       -1.13510482490000        0.55084881770000
C           -1.04996126660000       -0.55972429640000        0.00286168100000
F           -0.80016626580000       -1.88602691330000        0.06612305120000
C           -0.00323622410000        0.30320292350000       -0.31189176290000
C            1.33532229660000       -0.22461130830000       -0.57672057710000
C            1.94904948340000       -1.14817270570000        0.14384512380000
F            1.52872267100000       -1.68897344390000        1.27695998140000
F            3.15713016890000       -1.62547535160000       -0.15059670880000
H            2.65492605730000        3.46845630720000       -0.62399837570000
H            2.38810563360000        1.88944596190000        0.25818786630000
H            0.34939689410000        3.51849673640000       -1.33583917190000
H           -1.83750036620000        3.14616725470000       -0.38865080030000
H           -3.62340640140000        1.57900759950000        0.21379399600000
H           -4.36905905630000       -0.63855524970000        0.73577386720000
H           -3.13538088070000       -1.70306654310000        1.43510761450000
H           -3.54552607520000       -1.84559713940000       -0.26581993870000
H            1.86203997640000        0.16289820570000       -1.43601894480000
