
Running Job 1 of 1 fragments/A010/conf-1/spe_input.inp
qchem fragments/A010/conf-1/spe_input.inp_207619.0 /gpfs/fs0/scratch/a/aspuru/rhickman/descriptor_computation/qchem207619/ 0
/scinet/niagara/software/commercial/qc52/exe/qcprog.exe_s fragments/A010/conf-1/spe_input.inp_207619.0 /gpfs/fs0/scratch/a/aspuru/rhickman/descriptor_computation/qchem207619/
                  Welcome to Q-Chem
     A Quantum Leap Into The Future Of Chemistry


 Q-Chem 5.2, Q-Chem, Inc., Pleasanton, CA (2019)

 License issued to: SRG Alan Aspuru-Guzik, University of Toronto

 Yihan Shao,  Zhengting Gan,  E. Epifanovsky,  A. T. B. Gilbert,  M. Wormit,  
 J. Kussmann,  A. W. Lange,  A. Behn,  Jia Deng,  Xintian Feng,  D. Ghosh,  
 M. Goldey,  P. R. Horn,  L. D. Jacobson,  I. Kaliman,  T. Kus,  A. Landau,  
 Jie Liu,  E. I. Proynov,  R. M. Richard,  R. P. Steele,  E. J. Sundstrom,  
 H. L. Woodcock III,  P. M. Zimmerman,  D. Zuev,  B. Albrecht,  E. Alguire,  
 S. A. Baeppler,  D. Barton,  Z. Benda,  Y. A. Bernard,  E. J. Berquist,  
 K. B. Bravaya,  H. Burton,  D. Casanova,  Chun-Min Chang,  Yunqing Chen,  
 A. Chien,  K. D. Closser,  M. P. Coons,  S. Coriani,  S. Dasgupta,  
 A. L. Dempwolff,  M. Diedenhofen,  Hainam Do,  R. G. Edgar,  Po-Tung Fang,  
 S. Faraji,  S. Fatehi,  Qingguo Feng,  K. D. Fenk,  J. Fosso-Tande,  
 J. Gayvert,  Qinghui Ge,  A. Ghysels,  G. Gidofalvi,  J. Gomes,  
 J. Gonthier,  A. Gunina,  D. Hait,  M. W. D. Hanson-Heine,  
 P. H. P. Harbach,  A. W. Hauser,  M. F. Herbst,  J. E. Herr,  
 E. G. Hohenstein,  Z. C. Holden,  Kerwin Hui,  B. C. Huynh,  T.-C. Jagau,  
 Hyunjun Ji,  B. Kaduk,  K. Khistyaev,  Jaehoon Kim,  P. Klunzinger,  K. Koh,  
 D. Kosenkov,  L. Koulias,  T. Kowalczyk,  C. M. Krauter,  A. Kunitsa,  
 Ka Un Lao,  A. Laurent,  K. V. Lawler,  Joonho Lee,  D. Lefrancois,  
 S. Lehtola,  D. S. Levine,  Yi-Pei Li,  You-Sheng Lin,  Fenglai Liu,  
 E. Livshits,  A. Luenser,  P. Manohar,  E. Mansoor,  S. F. Manzer,  
 Shan-Ping Mao,  Yuezhi Mao,  N. Mardirossian,  A. V. Marenich,  
 T. Markovich,  L. A. Martinez-Martinez,  S. A. Maurer,  N. J. Mayhall,  
 S. C. McKenzie,  J.-M. Mewes,  P. Morgante,  A. F. Morrison,  
 J. W. Mullinax,  K. Nanda,  T. S. Nguyen-Beck,  R. Olivares-Amaya,  
 J. A. Parkhill,  Zheng Pei,  T. M. Perrine,  F. Plasser,  P. Pokhilko,  
 S. Prager,  A. Prociuk,  E. Ramos,  D. R. Rehn,  F. Rob,  M. Scheurer,  
 M. Schneider,  N. Sergueev,  S. M. Sharada,  S. Sharma,  D. W. Small,  
 T. Stauch,  T. Stein,  Yu-Chuan Su,  A. J. W. Thom,  A. Tkatchenko,  
 T. Tsuchimochi,  N. M. Tubman,  L. Vogt,  M. L. Vidal,  O. Vydrov,  
 M. A. Watson,  J. Wenzel,  M. de Wergifosse,  T. A. Wesolowski,  A. White,  
 J. Witte,  A. Yamada,  Jun Yang,  K. Yao,  S. Yeganeh,  S. R. Yost,  
 Zhi-Qiang You,  A. Zech,  Igor Ying Zhang,  Xing Zhang,  Yan Zhao,  
 Ying Zhu,  B. R. Brooks,  G. K. L. Chan,  C. J. Cramer,  M. S. Gordon,  
 W. J. Hehre,  A. Klamt,  M. W. Schmidt,  C. D. Sherrill,  D. G. Truhlar,  
 A. Aspuru-Guzik,  R. Baer,  A. T. Bell,  N. A. Besley,  Jeng-Da Chai,  
 A. E. DePrince, III,  R. A. DiStasio Jr.,  A. Dreuw,  B. D. Dunietz,  
 T. R. Furlani,  Chao-Ping Hsu,  Yousung Jung,  Jing Kong,  D. S. Lambrecht,  
 WanZhen Liang,  C. Ochsenfeld,  V. A. Rassolov,  L. V. Slipchenko,  
 J. E. Subotnik,  T. Van Voorhis,  J. M. Herbert,  A. I. Krylov,  
 P. M. W. Gill,  M. Head-Gordon

 Contributors to earlier versions of Q-Chem not listed above: 
 R. D. Adamson,  B. Austin,  J. Baker,  G. J. O. Beran,  K. Brandhorst,  
 S. T. Brown,  E. F. C. Byrd,  A. K. Chakraborty,  C.-L. Cheng,  
 Siu Hung Chien,  D. M. Chipman,  D. L. Crittenden,  H. Dachsel,  
 R. J. Doerksen,  A. D. Dutoi,  L. Fusti-Molnar,  W. A. Goddard III,  
 A. Golubeva-Zadorozhnaya,  S. R. Gwaltney,  G. Hawkins,  A. Heyden,  
 S. Hirata,  G. Kedziora,  F. J. Keil,  C. Kelley,  Jihan Kim,  R. A. King,  
 R. Z. Khaliullin,  P. P. Korambath,  W. Kurlancheek,  A. M. Lee,  M. S. Lee,  
 S. V. Levchenko,  Ching Yeh Lin,  D. Liotard,  R. C. Lochan,  I. Lotan,  
 P. E. Maslen,  N. Nair,  D. P. O'Neill,  D. Neuhauser,  E. Neuscamman,  
 C. M. Oana,  R. Olson,  B. Peters,  R. Peverati,  P. A. Pieniazek,  
 Y. M. Rhee,  J. Ritchie,  M. A. Rohrdanz,  E. Rosta,  N. J. Russ,  
 H. F. Schaefer III,  N. E. Schultz,  N. Shenvi,  A. C. Simmonett,  A. Sodt,  
 D. Stuck,  K. S. Thanthiriwatte,  V. Vanovschi,  Tao Wang,  A. Warshel,  
 C. F. Williams,  Q. Wu,  X. Xu,  W. Zhang

 Please cite Q-Chem as follows:
 Y. Shao et al., Mol. Phys. 113, 184-215 (2015)
 DOI: 10.1080/00268976.2014.952696

 Q-Chem 5.2.1 for Intel X86 EM64T Linux

 Parts of Q-Chem use Armadillo 8.300.2 (Tropical Shenanigans).
 http://arma.sourceforge.net/

 Q-Chem begins on Fri Feb  4 12:21:08 2022  

Host: 
0

     Scratch files written to /gpfs/fs0/scratch/a/aspuru/rhickman/descriptor_computation/qchem207619//
 Jul1719 |scratch|qcdevops|jenkins|workspace|build_RNUM -1
Processing $rem in /scinet/niagara/software/commercial/qc52/config/preferences:
	 MEM_TOTAL  4000 
NAlpha2: 158
NElect   158
Mult     1

Checking the input file for inconsistencies... 	...done.

--------------------------------------------------------------
User input:
--------------------------------------------------------------
$molecule
0 1
F        -5.42014001190000   -1.18686837080000   -1.23661614010000
C        -4.22087768580000   -0.79348507700000   -0.81302648950000
F        -3.30259427320000   -1.62129278380000   -1.29461057840000
C        -4.04063312770000    0.26012549520000   -0.03058010950000
C        -2.79315209150000    0.78553206670000    0.50353004490000
C        -1.54172122940000    0.30243758260000    0.12695312560000
C        -0.38403874640000    0.83791454290000    0.67992644910000
N         0.86525049850000    0.33550992930000    0.30097112720000
C         1.22490474810000   -0.99950246050000    0.26650554760000
C         2.57054102850000   -1.10870174800000   -0.15150873080000
C         3.17062200130000   -2.35741019160000   -0.24605287160000
C         2.42894684210000   -3.47390057800000    0.08374980880000
C         1.11071979020000   -3.35478277110000    0.51768894140000
C         0.49239563510000   -2.12322873770000    0.62019138400000
C         1.95441474390000    1.08997108360000   -0.09296104400000
C         3.03633465590000    0.22941652150000   -0.38736002230000
C         4.24441494250000    0.75581890460000   -0.82488086290000
C         4.35529731210000    2.12395915400000   -0.97227478320000
C         3.27554556570000    2.96231092980000   -0.70511951880000
C         2.06367795730000    2.46182964880000   -0.26833141980000
C        -0.46982955940000    1.87153987180000    1.61035345210000
C        -1.70986175930000    2.36571952940000    1.97101066280000
C        -2.86212643720000    1.83098841280000    1.42760239750000
H        -4.94348601350000    0.78187593100000    0.25221452060000
H        -1.44931928420000   -0.47732840780000   -0.61083773400000
H         4.19737320480000   -2.44699466320000   -0.56729230840000
H         2.87512852120000   -4.45476859420000    0.01434015980000
H         0.55927954260000   -4.24463129550000    0.78273276660000
H        -0.52435398760000   -2.04346907330000    0.97365699130000
H         5.07511636860000    0.10381158550000   -1.04889478090000
H         5.28665495700000    2.55422485950000   -1.30911181840000
H         3.38603121640000    4.02740380290000   -0.84629209440000
H         1.22767729480000    3.11972619850000   -0.08382670890000
H         0.43078377100000    2.26867384520000    2.05277317180000
H        -1.77733165060000    3.16849687720000    2.68983822210000
H        -3.82580958770000    2.21905167880000    1.72112256380000
$end

$rem
BASIS = 6-31G*
GUI = 2
METHOD = B3LYP
PRINT_ORBITALS false
MOLDEN_FORMAT false
--------------------------------------------------------------
 ----------------------------------------------------------------
             Standard Nuclear Orientation (Angstroms)
    I     Atom           X                Y                Z
 ----------------------------------------------------------------
    1      F       5.5230747046    -0.9698922985     1.2778412447
    2      C       4.3083418085    -0.6099103424     0.8688843799
    3      F       3.4447400970    -1.5617608322     1.1984386077
    4      C       4.0674026394     0.5266555524     0.2325103079
    5      C       2.7972548756     1.0289248199    -0.2694706670
    6      C       1.5776476262     0.4077951151    -0.0086532859
    7      C       0.3967078663     0.9292075664    -0.5246514854
    8      N      -0.8193312334     0.2888335258    -0.2640538159
    9      C      -1.0752946432    -1.0605839232    -0.4263880925
   10      C      -2.4188218706    -1.3251693989    -0.0766359866
   11      C      -2.9226505566    -2.6153286205    -0.1764076448
   12      C      -2.0884375242    -3.6175704555    -0.6291797215
   13      C      -0.7725830013    -3.3429692111    -0.9943314903
   14      C      -0.2490372146    -2.0673046332    -0.9041287035
   15      C      -1.9735004078     0.8992166096     0.1898172563
   16      C      -2.9928009163    -0.0707819170     0.3236266004
   17      C      -4.2489586157     0.2996136780     0.7849907422
   18      C      -4.4692424791     1.6219463482     1.1147466193
   19      C      -3.4510901507     2.5660553655     1.0047763103
   20      C      -2.1931841175     2.2214311236     0.5478353954
   21      C       0.4263013394     2.0861561690    -1.3005573750
   22      C       1.6332766451     2.7151752631    -1.5445094299
   23      C       2.8090070361     2.1954395673    -1.0380741901
   24      H       4.9341702946     1.1473780328     0.0571333204
   25      H       1.5268027852    -0.4720412345     0.6111944953
   26      H      -3.9473667715    -2.8237171822     0.0918628781
   27      H      -2.4589706453    -4.6284791517    -0.7114394899
   28      H      -0.1472002648    -4.1443553919    -1.3588058988
   29      H       0.7673075379    -1.8648470334    -1.2060121233
   30      H      -5.0322040910    -0.4362511270     0.8869228425
   31      H      -5.4395455712     1.9316994671     1.4733267959
   32      H      -3.6473492554     3.5900291437     1.2867686307
   33      H      -1.4061379509     2.9579793932     0.4860135183
   34      H      -0.4905822232     2.4743013361    -1.7167578482
   35      H       1.6569988502     3.6132636452    -2.1433343052
   36      H       3.7470326907     2.6900915398    -1.2402120103
 ----------------------------------------------------------------
 Molecular Point Group                 C1    NOp =  1
 Largest Abelian Subgroup              C1    NOp =  1
 Nuclear Repulsion Energy =        1762.96490997 hartrees
 There are       79 alpha and       79 beta electrons
 Requested basis set is 6-31G(d)
 There are 118 shells and 371 basis functions

 Total QAlloc Memory Limit   4000 MB
 Mega-Array Size       188 MB
 MEM_STATIC part       192 MB
 A cutoff of  1.0D-08 yielded   3539 shell pairs
 There are     37956 function pairs
 Smallest overlap matrix eigenvalue = 2.67E-04

 Scale SEOQF with 1.000000e-02/1.000000e-01/1.000000e-01

 Standard Electronic Orientation quadrupole field applied
 Nucleus-field energy     =     0.0000000330 hartrees
 Guess from superposition of atomic densities
 Warning:  Energy on first SCF cycle will be non-variational
 SAD guess density has 158.000000 electrons

 -----------------------------------------------------------------------
  General SCF calculation program by
  Eric Jon Sundstrom, Paul Horn, Yuezhi Mao, Dmitri Zuev, Alec White,
  David Stuck, Shaama M.S., Shane Yost, Joonho Lee, David Small,
  Daniel Levine, Susi Lehtola, Hugh Burton, Evgeny Epifanovsky,
  Bang C. Huynh
 -----------------------------------------------------------------------
 Exchange:     0.2000 Hartree-Fock + 0.0800 Slater + 0.7200 B88
 Correlation:  0.1900 VWN1RPA + 0.8100 LYP
 Using SG-1 standard quadrature grid
 A restricted SCF calculation will be
 performed using DIIS
 SCF converges when DIIS error is below 1.0e-05
 ---------------------------------------
  Cycle       Energy         DIIS error
 ---------------------------------------
    1   -1030.5234837133      4.33e-02  
    2   -1024.0537151727      4.26e-03  
    3   -1023.8039123099      5.77e-03  
    4   -1024.3447904015      1.49e-03  
    5   -1024.3817711282      4.82e-04  
    6   -1024.3853669884      2.32e-04  
    7   -1024.3863352853      4.43e-05  
    8   -1024.3863616331      2.15e-05  
    9   -1024.3863697325      4.10e-06  Convergence criterion met
 ---------------------------------------
 SCF time:   CPU 116.95s  wall 118.00s 
 SCF   energy in the final basis set =    -1024.3863697325
 Total energy in the final basis set =    -1024.3863697325
 
 --------------------------------------------------------------
 
                    Orbital Energies (a.u.)
 --------------------------------------------------------------
 
 Alpha MOs
 -- Occupied --
-24.7507 -24.7401 -14.3818 -10.3639 -10.2389 -10.2198 -10.2196 -10.2166
-10.2095 -10.2001 -10.1975 -10.1973 -10.1965 -10.1838 -10.1835 -10.1832
-10.1832 -10.1826 -10.1824 -10.1822 -10.1818 -10.1766 -10.1761  -1.2919
 -1.2307  -1.0013  -0.8822  -0.8504  -0.8468  -0.8147  -0.7877  -0.7592
 -0.7543  -0.7457  -0.7181  -0.7159  -0.6554  -0.6516  -0.6252  -0.6181
 -0.6026  -0.5877  -0.5737  -0.5705  -0.5459  -0.5254  -0.5228  -0.5168
 -0.5111  -0.4941  -0.4758  -0.4580  -0.4539  -0.4470  -0.4453  -0.4450
 -0.4416  -0.4348  -0.4298  -0.4215  -0.4198  -0.4134  -0.4103  -0.3875
 -0.3793  -0.3662  -0.3617  -0.3591  -0.3524  -0.3384  -0.3329  -0.3307
 -0.3059  -0.2790  -0.2638  -0.2511  -0.2318  -0.2109  -0.1966
 -- Virtual --
 -0.0365  -0.0232  -0.0160   0.0108   0.0365   0.0486   0.0599   0.0795
  0.1030   0.1086   0.1160   0.1323   0.1402   0.1511   0.1566   0.1601
  0.1627   0.1658   0.1733   0.1808   0.1903   0.1917   0.2039   0.2067
  0.2147   0.2179   0.2447   0.2681   0.2715   0.2814   0.2831   0.3003
  0.3043   0.3148   0.3273   0.3417   0.3436   0.3691   0.3906   0.3965
  0.4062   0.4261   0.4416   0.4672   0.4698   0.4947   0.4963   0.5109
  0.5188   0.5228   0.5275   0.5347   0.5401   0.5464   0.5515   0.5523
  0.5625   0.5665   0.5703   0.5758   0.5821   0.5842   0.5873   0.5894
  0.5942   0.5995   0.6033   0.6095   0.6137   0.6200   0.6224   0.6247
  0.6278   0.6323   0.6354   0.6371   0.6478   0.6509   0.6551   0.6650
  0.6887   0.7081   0.7127   0.7241   0.7505   0.7708   0.7888   0.7916
  0.7957   0.8151   0.8227   0.8288   0.8330   0.8423   0.8487   0.8507
  0.8549   0.8653   0.8673   0.8760   0.8843   0.8906   0.9030   0.9099
  0.9223   0.9264   0.9483   0.9570   0.9654   0.9691   0.9912   1.0019
  1.0055   1.0115   1.0156   1.0348   1.0444   1.0575   1.0732   1.1081
  1.1177   1.1257   1.1319   1.1570   1.1596   1.1613   1.1676   1.1894
  1.2007   1.2066   1.2095   1.2205   1.2230   1.2389   1.2474   1.2609
  1.2821   1.2951   1.3215   1.3334   1.3473   1.3524   1.3734   1.3964
  1.3976   1.4081   1.4164   1.4396   1.4467   1.4515   1.4531   1.4575
  1.4678   1.4734   1.4796   1.4835   1.4900   1.4992   1.5059   1.5071
  1.5145   1.5480   1.6025   1.6218   1.6288   1.6388   1.6885   1.7121
  1.7277   1.7580   1.7705   1.7783   1.7808   1.7877   1.7934   1.8167
  1.8228   1.8317   1.8343   1.8577   1.8711   1.8780   1.8811   1.8942
  1.9098   1.9187   1.9320   1.9346   1.9406   1.9607   1.9721   1.9752
  1.9831   1.9918   1.9948   2.0035   2.0227   2.0303   2.0453   2.0569
  2.0820   2.0976   2.1048   2.1342   2.1366   2.1452   2.1516   2.1603
  2.1760   2.1863   2.2078   2.2109   2.2281   2.2336   2.2359   2.2484
  2.2699   2.2816   2.2869   2.2924   2.3030   2.3184   2.3188   2.3413
  2.3641   2.3823   2.4069   2.4321   2.4759   2.5022   2.5141   2.5211
  2.5535   2.5570   2.5946   2.6104   2.6175   2.6242   2.6501   2.6631
  2.6737   2.6794   2.6829   2.6903   2.7035   2.7187   2.7298   2.7501
  2.7737   2.7866   2.8006   2.8280   2.8430   2.8675   2.8762   2.9103
  2.9156   2.9521   2.9737   3.0076   3.0494   3.1346   3.1901   3.2642
  3.3014   3.3738   3.4009   3.4921   3.5681   4.0738   4.0952   4.1003
  4.1100   4.1118   4.1282   4.1547   4.1652   4.1811   4.1962   4.2607
  4.3035   4.3727   4.3784   4.4231   4.4531   4.4682   4.5142   4.7241
  4.7650   4.8309   4.8732   5.2832
 --------------------------------------------------------------
 
          Ground-State Mulliken Net Atomic Charges

     Atom                 Charge (a.u.)
  ----------------------------------------
      1 F                    -0.245639
      2 C                     0.551810
      3 F                    -0.231205
      4 C                    -0.303884
      5 C                     0.187959
      6 C                    -0.237507
      7 C                     0.292661
      8 N                    -0.735701
      9 C                     0.311774
     10 C                     0.060651
     11 C                    -0.195071
     12 C                    -0.145322
     13 C                    -0.138558
     14 C                    -0.174712
     15 C                     0.312698
     16 C                     0.059904
     17 C                    -0.195041
     18 C                    -0.145380
     19 C                    -0.138791
     20 C                    -0.176983
     21 C                    -0.159728
     22 C                    -0.141090
     23 C                    -0.187745
     24 H                     0.162833
     25 H                     0.161595
     26 H                     0.128599
     27 H                     0.121648
     28 H                     0.125337
     29 H                     0.139334
     30 H                     0.128824
     31 H                     0.121592
     32 H                     0.124627
     33 H                     0.138395
     34 H                     0.152944
     35 H                     0.138162
     36 H                     0.131011
  ----------------------------------------
  Sum of atomic charges =     0.000000

 -----------------------------------------------------------------
                    Cartesian Multipole Moments
 -----------------------------------------------------------------
    Charge (ESU x 10^10)
                 0.0000
    Dipole Moment (Debye)
         X       1.0842      Y       1.4643      Z      -0.7536
       Tot       1.9717
    Quadrupole Moments (Debye-Ang)
        XX    -120.8781     XY       5.1692     YY    -118.8804
        XZ      -4.9061     YZ      -1.1342     ZZ    -131.6269
    Octopole Moments (Debye-Ang^2)
       XXX      47.6254    XXY      10.5411    XYY      17.1252
       YYY     -13.7044    XXZ       9.4746    XYZ      -4.5076
       YYZ      -9.4603    XZZ      30.1139    YZZ       1.4452
       ZZZ      19.7479
    Hexadecapole Moments (Debye-Ang^3)
      XXXX   -6171.5695   XXXY      74.3447   XXYY   -1457.3543
      XYYY     -60.4839   YYYY   -2702.0757   XXXZ     -70.7917
      XXYZ       5.9428   XYYZ     -21.0069   YYYZ     -15.4119
      XXZZ   -1216.0762   XYZZ     -35.6697   YYZZ    -582.0551
      XZZZ     105.5983   YZZZ     -51.2128   ZZZZ    -687.7029
 -----------------------------------------------------------------
Archival summary:
1\1\nia0001.scinet.local\SP\ProcedureUnspecified\6-31G*\212013\rhickman\FriFeb412:23:072022FriFeb412:23:072022\0\\#,ProcedureUnspecified,6-31G*,\\0,1\N\C,1,1.38227\C,1,1.38304,2,108.352\C,3,1.38724,1,129.661,2,177.369,0\H,4,1.07939,3,121.401,1,0.960852,0\C,4,1.38187,3,117.824,1,-178.455,0\H,6,1.07989,4,119.189,3,-179.704,0\C,2,1.38733,1,129.629,3,177.061,0\H,8,1.07971,2,121.329,1,0.699904,0\C,8,1.38199,2,117.848,1,-178.476,0\H,10,1.08007,8,119.218,2,-179.819,0\C,10,1.39286,8,121.495,2,0.440243,0\H,12,1.07982,10,119.25,8,-179.816,0\C,12,1.38052,10,120.914,8,0.835029,0\H,14,1.07952,12,120.971,10,178.877,0\C,14,1.38852,12,118.636,10,-0.797319,0\C,6,1.39292,4,121.519,3,0.453998,0\H,17,1.07981,6,119.259,4,-179.807,0\C,17,1.38036,6,120.914,4,0.733802,0\H,19,1.07955,17,120.997,6,179.006,0\C,19,1.38864,17,118.612,6,-0.735404,0\C,1,1.39884,2,125.795,3,179.536,0\C,22,1.39023,1,119.842,2,131.043,0\H,23,1.07745,22,118.666,1,-1.7544,0\C,23,1.39329,22,120.457,1,179.463,0\C,22,1.39335,1,120.154,2,-49.027,0\H,26,1.07915,22,119.695,1,-1.28014,0\C,26,1.38274,22,119.637,1,179.597,0\H,28,1.07968,26,119.698,22,-179.831,0\C,28,1.38165,26,120.464,22,0.781634,0\H,30,1.07955,28,119.895,26,179.556,0\C,25,1.45518,23,123.065,22,-179.502,0\H,32,1.08043,25,116.484,23,-173.6,0\C,32,1.32469,25,128.361,23,7.29254,0\F,34,1.32681,32,128.057,25,0.0617288,0\F,34,1.33132,32,123.06,25,179.615,0\\\@

 Total job time:  118.54s(wall), 117.34s(cpu) 
 Fri Feb  4 12:23:07 2022

        *************************************************************
        *                                                           *
        *  Thank you very much for using Q-Chem.  Have a nice day.  *
        *                                                           *
        *************************************************************


