
Running Job 1 of 1 tidas/B050/conf-5/spe_input.inp
qchem tidas/B050/conf-5/spe_input.inp_134521.0 /home/a/aspuru/seifridm/acdc_laser/descriptor_computation/qchem134521/ 0
/gpfs/fs1/scinet/niagara/software/commercial/qc54/exe/qcprog.exe_s tidas/B050/conf-5/spe_input.inp_134521.0 /home/a/aspuru/seifridm/acdc_laser/descriptor_computation/qchem134521/
                  Welcome to Q-Chem
     A Quantum Leap Into The Future Of Chemistry


 Q-Chem 5.4, Q-Chem, Inc., Pleasanton, CA (2021)

 License issued to: SRG Alan Aspuru-Guzik, University of Toronto

 E. Epifanovsky,  A. T. B. Gilbert,  Xintian Feng,  Joonho Lee,  Yuezhi Mao,  
 N. Mardirossian,  P. Pokhilko,  A. White,  M. Wormit,  M. P. Coons,  
 A. L. Dempwolff,  Zhengting Gan,  D. Hait,  P. R. Horn,  L. D. Jacobson,  
 I. Kaliman,  J. Kussmann,  A. W. Lange,  Ka Un Lao,  D. S. Levine,  Jie Liu,  
 S. C. McKenzie,  A. F. Morrison,  K. Nanda,  F. Plasser,  D. R. Rehn,  
 M. L. Vidal,  Zhi-Qiang You,  Ying Zhu,  B. Alam,  B. Albrecht,  
 A. Aldossary,  E. Alguire,  J. H. Andersen,  D. Barton,  K. Begam,  A. Behn,  
 Y. A. Bernard,  E. J. Berquist,  H. Burton,  A. Carreras,  K. Carter-Fenk,  
 Romit Chakraborty,  A. D. Chien,  K. D. Closser,  V. Cofer-Shabica,  
 S. Dasgupta,  Jia Deng,  M. de Wergifosse,  M. Diedenhofen,  Hainam Do,  
 S. Ehlert,  Po-Tung Fang,  S. Fatehi,  Qingguo Feng,  T. Friedhoff,  
 J. Gayvert,  Qinghui Ge,  G. Gidofalvi,  M. Goldey,  J. Gomes,  
 C. Gonzalez-Espinoza,  S. Gulania,  A. Gunina,  M. W. D. Hanson-Heine,  
 P. H. P. Harbach,  A. W. Hauser,  M. F. Herbst,  M. Hernandez Vera,  
 M. Hodecker,  Z. C. Holden,  S. Houck,  Xunkun Huang,  Kerwin Hui,  
 B. C. Huynh,  M. Ivanov,  Hyunjun Ji,  Hanjie Jiang,  B. Kaduk,  S. Kaehler,  
 K. Khistyaev,  Jaehoon Kim,  P. Klunzinger,  Z. Koczor-Benda,  
 Joong Hoon Koh,  D. Kosenkov,  L. Koulias,  T. Kowalczyk,  C. M. Krauter,  
 K. Kue,  A. Kunitsa,  T. Kus,  A. Landau,  K. V. Lawler,  D. Lefrancois,  
 S. Lehtola,  Rain Li,  Yi-Pei Li,  Jiashu Liang,  M. Liebenthal,  
 Hung-Hsuan Lin,  You-Sheng Lin,  Fenglai Liu,  Kuan-Yu Liu,  
 M. Loipersberger,  A. Luenser,  A. Manjanath,  P. Manohar,  E. Mansoor,  
 S. F. Manzer,  Shan-Ping Mao,  A. V. Marenich,  T. Markovich,  S. Mason,  
 S. A. Maurer,  P. F. McLaughlin,  M. F. S. J. Menger,  J.-M. Mewes,  
 S. A. Mewes,  P. Morgante,  J. W. Mullinax,  K. J. Oosterbaan,  G. Paran,  
 Alexander C. Paul,  Suranjan K. Paul,  F. Pavosevic,  Zheng Pei,  S. Prager,  
 E. I. Proynov,  E. Ramos,  B. Rana,  A. E. Rask,  A. Rettig,  R. M. Richard,  
 F. Rob,  E. Rossomme,  T. Scheele,  M. Scheurer,  M. Schneider,  
 N. Sergueev,  S. M. Sharada,  W. Skomorowski,  D. W. Small,  C. J. Stein,  
 Yu-Chuan Su,  E. J. Sundstrom,  Zhen Tao,  J. Thirman,  T. Tsuchimochi,  
 N. M. Tubman,  S. P. Veccham,  O. Vydrov,  J. Wenzel,  J. Witte,  A. Yamada,  
 Kun Yao,  S. Yeganeh,  S. R. Yost,  A. Zech,  Igor Ying Zhang,  Xing Zhang,  
 Yu Zhang,  D. Zuev,  A. Aspuru-Guzik,  A. T. Bell,  N. A. Besley,  
 K. B. Bravaya,  B. R. Brooks,  D. Casanova,  Jeng-Da Chai,  S. Coriani,  
 C. J. Cramer,  A. E. DePrince, III,  R. A. DiStasio Jr.,  A. Dreuw,  
 B. D. Dunietz,  T. R. Furlani,  W. A. Goddard III,  S. Grimme,  
 S. Hammes-Schiffer,  T. Head-Gordon,  W. J. Hehre,  Chao-Ping Hsu,  
 T.-C. Jagau,  Yousung Jung,  A. Klamt,  Jing Kong,  D. S. Lambrecht,  
 WanZhen Liang,  N. J. Mayhall,  C. W. McCurdy,  J. B. Neaton,  T. Neudecker,  
 C. Ochsenfeld,  J. A. Parkhill,  R. Peverati,  V. A. Rassolov,  Yihan Shao,  
 L. V. Slipchenko,  R. P. Steele,  J. E. Subotnik,  A. J. W. Thom,  
 A. Tkatchenko,  D. G. Truhlar,  T. Van Voorhis,  T. A. Wesolowski,  
 K. B. Whaley,  H. L. Woodcock III,  P. M. Zimmerman,  S. Faraji,  
 P. M. W. Gill,  M. Head-Gordon,  J. M. Herbert,  A. I. Krylov

 Additional authors since Version 5.4.0: 
 Chandrima Chakravarty,  L. Cunha,  R. Kang,  Yongbin Kim,  S. Kotaru,  
 Shaozhi Li,  Xiangyuan Li,  F. Matz,  A. Molle,  V. Parravicini,  
 Haisheng Ren,  Hengyuan Shen,  Yingli Su,  Hung-Yi Tsai,  C. Utku,  
 Fang Wang,  Jeff Yang,  F. Zeller

 Contributors to earlier versions of Q-Chem not listed above: 
 R. D. Adamson,  B. Austin,  R. Baer,  J. Baker,  G. J. O. Beran,  
 K. Brandhorst,  S. T. Brown,  E. F. C. Byrd,  Arup K. Chakraborty,  
 G. K. L. Chan,  Chun-Min Chang,  Yunqing Chen,  C.-L. Cheng,  
 Siu Hung Chien,  D. M. Chipman,  D. L. Crittenden,  H. Dachsel,  
 R. J. Doerksen,  A. D. Dutoi,  R. G. Edgar,  J. Fosso-Tande,  
 L. Fusti-Molnar,  D. Ghosh,  A. Ghysels,  A. Golubeva-Zadorozhnaya,  
 J. Gonthier,  M. S. Gordon,  S. R. Gwaltney,  G. Hawkins,  J. E. Herr,  
 A. Heyden,  S. Hirata,  E. G. Hohenstein,  G. Kedziora,  F. J. Keil,  
 C. Kelley,  Jihan Kim,  R. A. King,  R. Z. Khaliullin,  P. P. Korambath,  
 W. Kurlancheek,  A. Laurent,  A. M. Lee,  M. S. Lee,  S. V. Levchenko,  
 Ching Yeh Lin,  D. Liotard,  E. Livshits,  R. C. Lochan,  I. Lotan,  
 L. A. Martinez-Martinez,  P. E. Maslen,  N. Nair,  D. P. O'Neill,  
 D. Neuhauser,  E. Neuscamman,  C. M. Oana,  R. Olivares-Amaya,  R. Olson,  
 T. M. Perrine,  B. Peters,  P. A. Pieniazek,  A. Prociuk,  Y. M. Rhee,  
 J. Ritchie,  M. A. Rohrdanz,  E. Rosta,  N. J. Russ,  H. F. Schaefer III,  
 M. W. Schmidt,  N. E. Schultz,  S. Sharma,  N. Shenvi,  C. D. Sherrill,  
 A. C. Simmonett,  A. Sodt,  T. Stein,  D. Stuck,  K. S. Thanthiriwatte,  
 V. Vanovschi,  L. Vogt,  Tao Wang,  A. Warshel,  M. A. Watson,  
 C. F. Williams,  Q. Wu,  X. Xu,  Jun Yang,  W. Zhang,  Yan Zhao

   Please cite Q-Chem as follows:
  "Software for the frontiers of quantum chemistry:
   An overview of developments in the Q-Chem 5 package"
   J. Chem. Phys. 155, 084801 (2021)
   https://doi.org/10.1063/5.0055522 (open access)

 Q-Chem 5.4.2 for Intel X86 EM64T Linux

 Parts of Q-Chem use Armadillo 9.900.5 (Nocturnal Misbehaviour).
 http://arma.sourceforge.net/

 Q-Chem begins on Fri Aug 12 13:11:43 2022  

 Host: 
0

     Scratch files written to /home/a/aspuru/seifridm/acdc_laser/descriptor_computation/qchem134521//
 Dec1321 |scratch|qcdevops|jenkins|workspace|build_RNUM 6959   
 Processing $rem in /gpfs/fs1/scinet/niagara/software/commercial/qc54/config/preferences:
 Processing $rem in /home/a/aspuru/seifridm/.qchemrc:

 Checking the input file for inconsistencies... 	...done.

--------------------------------------------------------------
User input:
--------------------------------------------------------------
$molecule
0 1
C            0.47679054970000        4.56428472500000        0.00502994490000
C           -0.54709263380000        3.71999421360000       -0.00906797410000
C           -0.47292494830000        2.26263205890000        0.02071437620000
C           -1.65665462840000        1.52906294840000       -0.03164314480000
C           -1.66636585260000        0.13414076190000       -0.00940337870000
C           -2.95541799020000       -0.53892122520000       -0.06907235600000
C           -3.20560054860000       -1.83997297090000       -0.05653759070000
F           -2.34170924230000       -2.84031848410000        0.01334804580000
F           -4.43928203660000       -2.33750974280000       -0.11645820470000
C           -0.44941566820000       -0.53924791430000        0.06811852350000
C            0.74016491440000        0.17950655460000        0.12350869490000
C            2.01100455240000       -0.58907608480000        0.20505061240000
O            2.07165308760000       -1.79359997410000        0.19956743590000
O            3.08302048890000        0.20906987480000        0.29720798950000
C            4.35721993610000       -0.43081176530000        0.36443650190000
C            4.86795953740000       -0.80161249180000       -1.02050400060000
C            0.73299388640000        1.56784826500000        0.09999113580000
H            0.32179299460000        5.62911706320000       -0.02080779560000
H            1.50200346310000        4.23896098530000        0.04128364420000
H           -1.55392755120000        4.11725923020000       -0.04893138970000
H           -2.59746520700000        2.05844308000000       -0.09227989340000
H           -3.82837157730000        0.09487328730000       -0.13136507390000
H           -0.39234614450000       -1.61531280210000        0.08805152440000
H            4.27122864210000       -1.32714854280000        0.98744351670000
H            5.01417515900000        0.29668823230000        0.84597881920000
H            4.20708545250000       -1.53604372270000       -1.47410683600000
H            5.86401607310000       -1.22706482460000       -0.93922858020000
H            4.90753489680000        0.07962876110000       -1.65652106510000
H            1.67092698300000        2.09531366510000        0.14506724730000
$end

$rem
BASIS = 6-31G*
GUI = 2
METHOD = B3LYP
PRINT_ORBITALS false
MOLDEN_FORMAT false
$end
--------------------------------------------------------------
 ----------------------------------------------------------------
             Standard Nuclear Orientation (Angstroms)
    I     Atom           X                Y                Z
 ----------------------------------------------------------------
    1      C       1.4107988360    -4.2808542508     0.0513508615
    2      C       0.2181943611    -3.6987243589     0.0648174117
    3      C      -0.0503119900    -2.2650702018     0.0115972915
    4      C      -1.3721634295    -1.8272076656     0.0669694558
    5      C      -1.7075809228    -0.4737001130     0.0232746977
    6      C      -3.1176465755    -0.1191137529     0.0881715934
    7      C      -3.6648728885     1.0871822704     0.0585515946
    8      F      -3.0591135153     2.2601079548    -0.0372829392
    9      F      -4.9801040815     1.2840466148     0.1257429043
   10      C      -0.6822390366     0.4636134758    -0.0794236883
   11      C       0.6418163837     0.0414653326    -0.1381281123
   12      C       1.6972893611     1.0838335175    -0.2469725162
   13      O       1.4749791684     2.2691484375    -0.2608587893
   14      O       2.9252767720     0.5564043607    -0.3397816022
   15      C       4.0141927407     1.4746868215    -0.4323653637
   16      C       4.4355344279     1.9791422570     0.9403706672
   17      C       0.9592926735    -1.3095617619    -0.0930526268
   18      H       1.5090034396    -5.3518179321     0.0955367026
   19      H       2.3313438244    -3.7259472318    -0.0023753770
   20      H      -0.6676496206    -4.3192204770     0.1230423533
   21      H      -2.1627848301    -2.5603683769     0.1472057069
   22      H      -3.8178898182    -0.9379218676     0.1708547504
   23      H      -0.8782349720     1.5227483396    -0.1166907172
   24      H       3.7161326749     2.3149178385    -1.0680727627
   25      H       4.8189226207     0.9121118469    -0.9105375431
   26      H       3.6251464389     2.5470418773     1.3905491316
   27      H       5.3039758445     2.6237868782     0.8404365784
   28      H       4.6850448213     1.1429872202     1.5894156420
   29      H       1.9940767759    -1.6042810464    -0.1413486163
 ----------------------------------------------------------------
 Molecular Point Group                 C1    NOp =  1
 Largest Abelian Subgroup              C1    NOp =  1
 Nuclear Repulsion Energy =        1139.00117086 hartrees
 There are       62 alpha and       62 beta electrons
 Requested basis set is 6-31G(d)
 There are 92 shells and 279 basis functions

 Total QAlloc Memory Limit   8000 MB
 Mega-Array Size       188 MB
 MEM_STATIC part       192 MB
 A cutoff of  1.0D-08 yielded   2285 shell pairs
 There are     22787 function pairs
 Smallest overlap matrix eigenvalue = 3.56E-04

 Scale SEOQF with 1.000000e-02/1.000000e-02/1.000000e-01

 Standard Electronic Orientation quadrupole field applied
 Nucleus-field energy     =     0.0000000053 hartrees
 Guess from superposition of atomic densities
 Warning:  Energy on first SCF cycle will be non-variational
 SAD guess density has 124.000000 electrons

 -----------------------------------------------------------------------
  General SCF calculation program by
  Eric Jon Sundstrom, Paul Horn, Yuezhi Mao, Dmitri Zuev, Alec White,
  David Stuck, Shaama M.S., Shane Yost, Joonho Lee, David Small,
  Daniel Levine, Susi Lehtola, Hugh Burton, Evgeny Epifanovsky,
  Bang C. Huynh
 -----------------------------------------------------------------------
 Exchange:     0.2000 Hartree-Fock + 0.0800 Slater + 0.7200 B88
 Correlation:  0.1900 VWN1RPA + 0.8100 LYP
 Using SG-1 standard quadrature grid
 A restricted SCF calculation will be
 performed using DIIS
 SCF converges when DIIS error is below 1.0e-05
 ---------------------------------------
  Cycle       Energy         DIIS error
 ---------------------------------------
    1    -856.4391097749      4.80e-02  
    2    -852.4022517805      5.83e-03  
    3    -852.0547248843      8.81e-03  
    4    -852.6819524113      1.92e-03  
    5    -852.7097090809      6.43e-04  
    6    -852.7126012747      2.43e-04  
    7    -852.7131160169      5.91e-05  
    8    -852.7131433209      2.34e-05  
    9    -852.7131494024      7.43e-06  Convergence criterion met
 ---------------------------------------
 SCF time:   CPU 79.38s  wall 82.00s 
 SCF   energy in the final basis set =     -852.7131494024
 Total energy in the final basis set =     -852.7131494024
 
 --------------------------------------------------------------
 
                    Orbital Energies (a.u.)
 --------------------------------------------------------------
 
 Alpha MOs
 -- Occupied --
-24.7471 -24.7366 -19.1912 -19.1326 -10.3606 -10.3136 -10.2428 -10.2136
-10.2062 -10.2049 -10.2044 -10.2002 -10.1969 -10.1965 -10.1949 -10.1864
-10.1799  -1.2891  -1.2275  -1.1084  -1.0174  -0.8808  -0.8211  -0.8020
 -0.7744  -0.7523  -0.7322  -0.6745  -0.6537  -0.6298  -0.6233  -0.5847
 -0.5691  -0.5526  -0.5355  -0.5221  -0.5137  -0.4985  -0.4825  -0.4758
 -0.4608  -0.4580  -0.4463  -0.4432  -0.4365  -0.4343  -0.4150  -0.4125
 -0.4097  -0.3949  -0.3831  -0.3786  -0.3716  -0.3609  -0.3535  -0.3395
 -0.3247  -0.2994  -0.2899  -0.2738  -0.2411  -0.2237
 -- Virtual --
 -0.0453  -0.0441   0.0049   0.0811   0.0841   0.0876   0.1069   0.1143
  0.1152   0.1331   0.1445   0.1510   0.1563   0.1608   0.1679   0.1811
  0.1895   0.1913   0.1986   0.2044   0.2221   0.2297   0.2747   0.2771
  0.2993   0.3013   0.3131   0.3302   0.3567   0.3834   0.4156   0.4445
  0.4606   0.4699   0.4861   0.4997   0.5090   0.5154   0.5219   0.5348
  0.5383   0.5463   0.5487   0.5537   0.5573   0.5660   0.5785   0.5794
  0.5841   0.5978   0.6187   0.6204   0.6222   0.6321   0.6396   0.6559
  0.6607   0.6814   0.6963   0.7092   0.7547   0.7604   0.7700   0.7789
  0.7911   0.7982   0.8093   0.8175   0.8256   0.8493   0.8599   0.8733
  0.8822   0.8922   0.8937   0.9007   0.9128   0.9305   0.9480   0.9578
  0.9611   0.9832   1.0103   1.0154   1.0170   1.0450   1.0585   1.0909
  1.1003   1.1044   1.1195   1.1534   1.1585   1.1591   1.1778   1.2002
  1.2120   1.2202   1.2455   1.2589   1.2825   1.3018   1.3051   1.3184
  1.3396   1.3585   1.3654   1.3862   1.4009   1.4017   1.4279   1.4540
  1.4568   1.4750   1.4817   1.4980   1.5078   1.5131   1.5527   1.5623
  1.5852   1.6510   1.6626   1.6695   1.6942   1.7187   1.7415   1.7536
  1.7763   1.7810   1.7833   1.8068   1.8252   1.8348   1.8354   1.8599
  1.8720   1.8871   1.8936   1.8953   1.9332   1.9356   1.9446   1.9657
  1.9780   1.9818   1.9907   2.0152   2.0276   2.0317   2.0466   2.0632
  2.0825   2.1134   2.1236   2.1373   2.1562   2.1626   2.1809   2.2068
  2.2202   2.2230   2.2580   2.2744   2.3060   2.3109   2.3200   2.3431
  2.3466   2.4082   2.4245   2.4312   2.4766   2.4961   2.5215   2.5359
  2.5409   2.5808   2.6067   2.6328   2.6437   2.6556   2.6836   2.6966
  2.7535   2.7605   2.8103   2.8400   2.8605   2.8855   2.9161   2.9702
  2.9962   3.0486   3.1134   3.1424   3.1731   3.2209   3.3332   3.4910
  3.9889   4.0731   4.0872   4.1151   4.1210   4.1478   4.1889   4.2300
  4.2625   4.3293   4.4361   4.4671   4.4937   4.5826   4.7406   4.8384
  5.3060
 --------------------------------------------------------------
 
          Ground-State Mulliken Net Atomic Charges

     Atom                 Charge (a.u.)
  ----------------------------------------
      1 C                    -0.351929
      2 C                    -0.110477
      3 C                     0.179393
      4 C                    -0.263388
      5 C                     0.197538
      6 C                    -0.300074
      7 C                     0.551358
      8 F                    -0.226616
      9 F                    -0.247251
     10 C                    -0.231933
     11 C                     0.046579
     12 C                     0.606180
     13 O                    -0.489947
     14 O                    -0.470006
     15 C                    -0.045586
     16 C                    -0.464836
     17 C                    -0.224235
     18 H                     0.147485
     19 H                     0.148038
     20 H                     0.128295
     21 H                     0.131022
     22 H                     0.159742
     23 H                     0.168951
     24 H                     0.169200
     25 H                     0.150898
     26 H                     0.179965
     27 H                     0.151952
     28 H                     0.156330
     29 H                     0.153355
  ----------------------------------------
  Sum of atomic charges =     0.000000

 -----------------------------------------------------------------
                    Cartesian Multipole Moments
 -----------------------------------------------------------------
    Charge (ESU x 10^10)
                 0.0000
    Dipole Moment (Debye)
         X       1.1619      Y      -2.4121      Z       0.1650
       Tot       2.6824
    Quadrupole Moments (Debye-Ang)
        XX     -83.9219     XY       5.1678     YY     -95.2885
        XZ      -0.6681     YZ      -0.0944     ZZ     -97.9295
    Octopole Moments (Debye-Ang^2)
       XXX      29.4254    XXY      11.3370    XYY     -10.0893
       YYY      -1.9659    XXZ      -3.7178    XYZ       0.3850
       YYZ       2.6099    XZZ     -11.3363    YZZ      24.2826
       ZZZ      -2.5149
    Hexadecapole Moments (Debye-Ang^3)
      XXXX   -3964.8676   XXXY      81.1485   XXYY   -1032.1560
      XYYY     -85.0842   YYYY   -2316.7318   XXXZ     -29.4600
      XXYZ     -10.5186   XYYZ      -5.4991   YYYZ      -6.1701
      XXZZ    -713.0912   XYZZ     -23.3293   YYZZ    -458.3679
      XZZZ     -11.5153   YZZZ      -3.0916   ZZZZ    -168.0759
 -----------------------------------------------------------------
 Total job time:  85.49s(wall), 80.02s(cpu) 
 Fri Aug 12 13:13:08 2022

        *************************************************************
        *                                                           *
        *  Thank you very much for using Q-Chem.  Have a nice day.  *
        *                                                           *
        *************************************************************


