
Running Job 1 of 1 fragments/C113/conf-0/spe_input.inp
qchem fragments/C113/conf-0/spe_input.inp_301588.0 /gpfs/fs0/scratch/a/aspuru/rhickman/descriptor_computation/qchem301588/ 0
/scinet/niagara/software/commercial/qc52/exe/qcprog.exe_s fragments/C113/conf-0/spe_input.inp_301588.0 /gpfs/fs0/scratch/a/aspuru/rhickman/descriptor_computation/qchem301588/
                  Welcome to Q-Chem
     A Quantum Leap Into The Future Of Chemistry


 Q-Chem 5.2, Q-Chem, Inc., Pleasanton, CA (2019)

 License issued to: SRG Alan Aspuru-Guzik, University of Toronto

 Yihan Shao,  Zhengting Gan,  E. Epifanovsky,  A. T. B. Gilbert,  M. Wormit,  
 J. Kussmann,  A. W. Lange,  A. Behn,  Jia Deng,  Xintian Feng,  D. Ghosh,  
 M. Goldey,  P. R. Horn,  L. D. Jacobson,  I. Kaliman,  T. Kus,  A. Landau,  
 Jie Liu,  E. I. Proynov,  R. M. Richard,  R. P. Steele,  E. J. Sundstrom,  
 H. L. Woodcock III,  P. M. Zimmerman,  D. Zuev,  B. Albrecht,  E. Alguire,  
 S. A. Baeppler,  D. Barton,  Z. Benda,  Y. A. Bernard,  E. J. Berquist,  
 K. B. Bravaya,  H. Burton,  D. Casanova,  Chun-Min Chang,  Yunqing Chen,  
 A. Chien,  K. D. Closser,  M. P. Coons,  S. Coriani,  S. Dasgupta,  
 A. L. Dempwolff,  M. Diedenhofen,  Hainam Do,  R. G. Edgar,  Po-Tung Fang,  
 S. Faraji,  S. Fatehi,  Qingguo Feng,  K. D. Fenk,  J. Fosso-Tande,  
 J. Gayvert,  Qinghui Ge,  A. Ghysels,  G. Gidofalvi,  J. Gomes,  
 J. Gonthier,  A. Gunina,  D. Hait,  M. W. D. Hanson-Heine,  
 P. H. P. Harbach,  A. W. Hauser,  M. F. Herbst,  J. E. Herr,  
 E. G. Hohenstein,  Z. C. Holden,  Kerwin Hui,  B. C. Huynh,  T.-C. Jagau,  
 Hyunjun Ji,  B. Kaduk,  K. Khistyaev,  Jaehoon Kim,  P. Klunzinger,  K. Koh,  
 D. Kosenkov,  L. Koulias,  T. Kowalczyk,  C. M. Krauter,  A. Kunitsa,  
 Ka Un Lao,  A. Laurent,  K. V. Lawler,  Joonho Lee,  D. Lefrancois,  
 S. Lehtola,  D. S. Levine,  Yi-Pei Li,  You-Sheng Lin,  Fenglai Liu,  
 E. Livshits,  A. Luenser,  P. Manohar,  E. Mansoor,  S. F. Manzer,  
 Shan-Ping Mao,  Yuezhi Mao,  N. Mardirossian,  A. V. Marenich,  
 T. Markovich,  L. A. Martinez-Martinez,  S. A. Maurer,  N. J. Mayhall,  
 S. C. McKenzie,  J.-M. Mewes,  P. Morgante,  A. F. Morrison,  
 J. W. Mullinax,  K. Nanda,  T. S. Nguyen-Beck,  R. Olivares-Amaya,  
 J. A. Parkhill,  Zheng Pei,  T. M. Perrine,  F. Plasser,  P. Pokhilko,  
 S. Prager,  A. Prociuk,  E. Ramos,  D. R. Rehn,  F. Rob,  M. Scheurer,  
 M. Schneider,  N. Sergueev,  S. M. Sharada,  S. Sharma,  D. W. Small,  
 T. Stauch,  T. Stein,  Yu-Chuan Su,  A. J. W. Thom,  A. Tkatchenko,  
 T. Tsuchimochi,  N. M. Tubman,  L. Vogt,  M. L. Vidal,  O. Vydrov,  
 M. A. Watson,  J. Wenzel,  M. de Wergifosse,  T. A. Wesolowski,  A. White,  
 J. Witte,  A. Yamada,  Jun Yang,  K. Yao,  S. Yeganeh,  S. R. Yost,  
 Zhi-Qiang You,  A. Zech,  Igor Ying Zhang,  Xing Zhang,  Yan Zhao,  
 Ying Zhu,  B. R. Brooks,  G. K. L. Chan,  C. J. Cramer,  M. S. Gordon,  
 W. J. Hehre,  A. Klamt,  M. W. Schmidt,  C. D. Sherrill,  D. G. Truhlar,  
 A. Aspuru-Guzik,  R. Baer,  A. T. Bell,  N. A. Besley,  Jeng-Da Chai,  
 A. E. DePrince, III,  R. A. DiStasio Jr.,  A. Dreuw,  B. D. Dunietz,  
 T. R. Furlani,  Chao-Ping Hsu,  Yousung Jung,  Jing Kong,  D. S. Lambrecht,  
 WanZhen Liang,  C. Ochsenfeld,  V. A. Rassolov,  L. V. Slipchenko,  
 J. E. Subotnik,  T. Van Voorhis,  J. M. Herbert,  A. I. Krylov,  
 P. M. W. Gill,  M. Head-Gordon

 Contributors to earlier versions of Q-Chem not listed above: 
 R. D. Adamson,  B. Austin,  J. Baker,  G. J. O. Beran,  K. Brandhorst,  
 S. T. Brown,  E. F. C. Byrd,  A. K. Chakraborty,  C.-L. Cheng,  
 Siu Hung Chien,  D. M. Chipman,  D. L. Crittenden,  H. Dachsel,  
 R. J. Doerksen,  A. D. Dutoi,  L. Fusti-Molnar,  W. A. Goddard III,  
 A. Golubeva-Zadorozhnaya,  S. R. Gwaltney,  G. Hawkins,  A. Heyden,  
 S. Hirata,  G. Kedziora,  F. J. Keil,  C. Kelley,  Jihan Kim,  R. A. King,  
 R. Z. Khaliullin,  P. P. Korambath,  W. Kurlancheek,  A. M. Lee,  M. S. Lee,  
 S. V. Levchenko,  Ching Yeh Lin,  D. Liotard,  R. C. Lochan,  I. Lotan,  
 P. E. Maslen,  N. Nair,  D. P. O'Neill,  D. Neuhauser,  E. Neuscamman,  
 C. M. Oana,  R. Olson,  B. Peters,  R. Peverati,  P. A. Pieniazek,  
 Y. M. Rhee,  J. Ritchie,  M. A. Rohrdanz,  E. Rosta,  N. J. Russ,  
 H. F. Schaefer III,  N. E. Schultz,  N. Shenvi,  A. C. Simmonett,  A. Sodt,  
 D. Stuck,  K. S. Thanthiriwatte,  V. Vanovschi,  Tao Wang,  A. Warshel,  
 C. F. Williams,  Q. Wu,  X. Xu,  W. Zhang

 Please cite Q-Chem as follows:
 Y. Shao et al., Mol. Phys. 113, 184-215 (2015)
 DOI: 10.1080/00268976.2014.952696

 Q-Chem 5.2.1 for Intel X86 EM64T Linux

 Parts of Q-Chem use Armadillo 8.300.2 (Tropical Shenanigans).
 http://arma.sourceforge.net/

 Q-Chem begins on Tue Feb  8 13:32:32 2022  

Host: 
0

     Scratch files written to /gpfs/fs0/scratch/a/aspuru/rhickman/descriptor_computation/qchem301588//
 Jul1719 |scratch|qcdevops|jenkins|workspace|build_RNUM -1
Processing $rem in /scinet/niagara/software/commercial/qc52/config/preferences:
	 MEM_TOTAL  4000 
NAlpha2: 78
NElect   78
Mult     1

Checking the input file for inconsistencies... 	...done.

--------------------------------------------------------------
User input:
--------------------------------------------------------------
$molecule
0 1
C        -3.89819305390000   -0.27327718270000   -0.00375211000000
C        -2.71225111580000   -0.86945005400000    0.01727266620000
C        -1.41823547180000   -0.20682000710000   -0.01643236080000
C        -1.22466649610000    1.16672402020000   -0.18057249710000
N        -0.02661152550000    1.71563374100000   -0.10595748590000
C         1.02934316410000    0.92023916900000    0.06391327270000
N         2.23674910460000    1.54230280140000    0.17521116970000
C         0.86521770440000   -0.49073600600000    0.09708445010000
C         1.95687540640000   -1.45525797120000    0.15700235310000
C         3.17588222950000   -1.29715595190000   -0.34557042420000
N        -0.35306781590000   -1.00498798520000    0.10360830810000
H        -4.81072223020000   -0.84356015620000    0.02464196150000
H        -4.01014326330000    0.79674514020000   -0.04715473820000
H        -2.64056759840000   -1.94749924510000    0.07153798130000
H        -2.04033779380000    1.85190524320000   -0.36150502500000
H         2.18436158160000    2.53709407450000    0.33017071370000
H         2.97879063570000    1.04475935580000    0.63885091210000
H         1.67450594460000   -2.39348715660000    0.61614707270000
H         3.47312428910000   -0.41302080970000   -0.88395426440000
H         3.91070155250000   -2.08149649960000   -0.27587486500000
$end

$rem
BASIS = 6-31G*
GUI = 2
METHOD = B3LYP
PRINT_ORBITALS false
MOLDEN_FORMAT false
--------------------------------------------------------------
 ----------------------------------------------------------------
             Standard Nuclear Orientation (Angstroms)
    I     Atom           X                Y                Z
 ----------------------------------------------------------------
    1      C       3.9014898165     0.2835024226    -0.0036899852
    2      C       2.7126017960     0.8737755398     0.0174130012
    3      C       1.4218945476     0.2047510305    -0.0168229386
    4      C       1.2351685883    -1.1696589134    -0.1816405644
    5      N       0.0398385920    -1.7245394529    -0.1074867999
    6      C      -1.0200769220    -0.9344723279     0.0625777397
    7      N      -2.2244010612    -1.5625694995     0.1733784647
    8      C      -0.8629578283     0.4772838283     0.0964389850
    9      C      -1.9593963960     1.4363508476     0.1566239864
   10      C      -3.1775197300     1.2724405938    -0.3462301194
   11      N       0.3527607775     0.9975692565     0.1034112531
   12      H       4.8111742502     0.8582912651     0.0251268202
   13      H       4.0187534969    -0.7859309219    -0.0475757453
   14      H       2.6355626754     1.9514302754     0.0721720580
   15      H       2.0542588388    -1.8507007025    -0.3627559891
   16      H      -2.1671057513    -2.5571614270     0.3278800345
   17      H      -2.9689791151    -1.0689308552     0.6371255243
   18      H      -1.6817612299     2.3757531244     0.6162569572
   19      H      -3.4702823469     0.3870951718    -0.8850793423
   20      H      -3.9162322085     2.0530938131    -0.2762913714
 ----------------------------------------------------------------
 Molecular Point Group                 C1    NOp =  1
 Largest Abelian Subgroup              C1    NOp =  1
 Nuclear Repulsion Energy =         562.48746015 hartrees
 There are       39 alpha and       39 beta electrons
 Requested basis set is 6-31G(d)
 There are 62 shells and 183 basis functions

 Total QAlloc Memory Limit   4000 MB
 Mega-Array Size       188 MB
 MEM_STATIC part       192 MB
 A cutoff of  1.0D-08 yielded   1390 shell pairs
 There are     13426 function pairs
 Smallest overlap matrix eigenvalue = 9.70E-04

 Scale SEOQF with 1.000000e-01/1.000000e-01/1.000000e+00

 Standard Electronic Orientation quadrupole field applied
 Nucleus-field energy     =     0.0000000180 hartrees
 Guess from superposition of atomic densities
 Warning:  Energy on first SCF cycle will be non-variational
 SAD guess density has 78.000000 electrons

 -----------------------------------------------------------------------
  General SCF calculation program by
  Eric Jon Sundstrom, Paul Horn, Yuezhi Mao, Dmitri Zuev, Alec White,
  David Stuck, Shaama M.S., Shane Yost, Joonho Lee, David Small,
  Daniel Levine, Susi Lehtola, Hugh Burton, Evgeny Epifanovsky,
  Bang C. Huynh
 -----------------------------------------------------------------------
 Exchange:     0.2000 Hartree-Fock + 0.0800 Slater + 0.7200 B88
 Correlation:  0.1900 VWN1RPA + 0.8100 LYP
 Using SG-1 standard quadrature grid
 A restricted SCF calculation will be
 performed using DIIS
 SCF converges when DIIS error is below 1.0e-05
 ---------------------------------------
  Cycle       Energy         DIIS error
 ---------------------------------------
    1    -477.1220691645      6.16e-02  
    2    -474.3155881874      6.23e-03  
    3    -474.2964891107      6.82e-03  
    4    -474.4741027822      1.31e-03  
    5    -474.4804471892      4.31e-04  
    6    -474.4810661853      2.05e-04  
    7    -474.4812469168      4.05e-05  
    8    -474.4812525075      1.92e-05  
    9    -474.4812539263      2.20e-06  Convergence criterion met
 ---------------------------------------
 SCF time:   CPU 21.74s  wall 22.00s 
 SCF   energy in the final basis set =     -474.4812539263
 Total energy in the final basis set =     -474.4812539263
 
 --------------------------------------------------------------
 
                    Orbital Energies (a.u.)
 --------------------------------------------------------------
 
 Alpha MOs
 -- Occupied --
-14.3544 -14.3335 -14.3327 -10.2661 -10.2269 -10.2235 -10.2168 -10.1961
-10.1876 -10.1851 -10.1778  -0.9922  -0.9318  -0.8904  -0.8093  -0.7746
 -0.7280  -0.6663  -0.6473  -0.6015  -0.5686  -0.5372  -0.5308  -0.4894
 -0.4839  -0.4624  -0.4410  -0.4349  -0.4303  -0.3968  -0.3749  -0.3608
 -0.3517  -0.3260  -0.2946  -0.2862  -0.2644  -0.2443  -0.2027
 -- Virtual --
 -0.0448  -0.0308   0.0197   0.0769   0.0942   0.1144   0.1257   0.1327
  0.1400   0.1547   0.1814   0.1920   0.2011   0.2084   0.2499   0.2730
  0.3006   0.3124   0.3343   0.3393   0.3679   0.3858   0.4236   0.4397
  0.4809   0.4988   0.5062   0.5191   0.5426   0.5473   0.5678   0.5772
  0.5911   0.6116   0.6240   0.6336   0.6459   0.6535   0.6637   0.6704
  0.6761   0.6913   0.6960   0.7009   0.7573   0.7720   0.8066   0.8214
  0.8374   0.8507   0.8585   0.8721   0.8837   0.8842   0.8976   0.9120
  0.9220   0.9403   0.9481   0.9804   0.9905   0.9926   1.0175   1.0449
  1.0873   1.1190   1.1327   1.1501   1.1634   1.1947   1.2394   1.2494
  1.2901   1.3123   1.3462   1.3639   1.4030   1.4602   1.4853   1.5007
  1.5077   1.5235   1.5347   1.5624   1.6151   1.6709   1.6784   1.7287
  1.7571   1.7785   1.8028   1.8190   1.8489   1.8675   1.9103   1.9645
  1.9691   1.9949   2.0189   2.0566   2.0769   2.1019   2.1414   2.1715
  2.2064   2.2128   2.2354   2.2578   2.2694   2.2864   2.3480   2.3746
  2.4021   2.4152   2.4494   2.4713   2.4906   2.5255   2.5761   2.5946
  2.6329   2.6595   2.6726   2.7302   2.7443   2.7671   2.8144   2.9231
  2.9721   3.0063   3.1204   3.3091   3.5089   3.8726   4.0221   4.0844
  4.0932   4.1582   4.1935   4.2626   4.3172   4.4821   4.5540   4.6719
 --------------------------------------------------------------
 
          Ground-State Mulliken Net Atomic Charges

     Atom                 Charge (a.u.)
  ----------------------------------------
      1 C                    -0.352401
      2 C                    -0.095263
      3 C                     0.284988
      4 C                    -0.002251
      5 N                    -0.466955
      6 C                     0.433015
      7 N                    -0.775144
      8 C                     0.279203
      9 C                    -0.100167
     10 C                    -0.370705
     11 N                    -0.543610
     12 H                     0.145662
     13 H                     0.140565
     14 H                     0.142188
     15 H                     0.143916
     16 H                     0.339991
     17 H                     0.333102
     18 H                     0.151722
     19 H                     0.162597
     20 H                     0.149546
  ----------------------------------------
  Sum of atomic charges =     0.000000

 -----------------------------------------------------------------
                    Cartesian Multipole Moments
 -----------------------------------------------------------------
    Charge (ESU x 10^10)
                 0.0000
    Dipole Moment (Debye)
         X      -1.6320      Y      -0.8037      Z       0.9121
       Tot       2.0351
    Quadrupole Moments (Debye-Ang)
        XX     -52.0755     XY       0.8725     YY     -62.6902
        XZ      -2.7726     YZ      -1.0662     ZZ     -66.0137
    Octopole Moments (Debye-Ang^2)
       XXX     -14.6611    XXY      -7.3099    XYY     -10.1409
       YYY      -5.3145    XXZ       4.8211    XYZ       4.8189
       YYZ       6.1155    XZZ      -5.7219    YZZ      -3.1231
       ZZZ       1.3971
    Hexadecapole Moments (Debye-Ang^3)
      XXXX   -1740.7241   XXXY      19.5320   XXYY    -357.2162
      XYYY      27.5624   YYYY    -568.0154   XXXZ     -13.1333
      XXYZ     -10.3037   XYYZ     -14.7969   YYYZ      -4.3738
      XXZZ    -355.0234   XYZZ       4.1792   YYZZ    -116.5979
      XZZZ      -3.2952   YZZZ      -0.3719   ZZZZ     -80.7651
 -----------------------------------------------------------------
Archival summary:
1\1\nia2015.scinet.local\SP\ProcedureUnspecified\6-31G*\389\rhickman\TueFeb813:32:542022TueFeb813:32:542022\0\\#,ProcedureUnspecified,6-31G*,\\0,1\N\C,1,1.32239\C,1,1.33644,2,120.104\C,3,1.39679,1,119.17,2,1.53783,0\H,4,1.08052,3,122.59,1,175,0\N,4,1.31993,3,121.876,1,-5.93271,0\C,6,1.33287,4,118.563,3,3.43379,0\N,7,1.36278,6,116.099,4,-178.063,0\H,8,1.00655,7,117.72,6,157.247,0\H,8,1.00815,7,114.641,6,13.4589,0\C,3,1.4542,1,115.786,2,-179.345,0\H,11,1.08179,3,113.346,1,-3.81315,0\C,11,1.32752,3,126.153,1,175.723,0\H,13,1.07645,11,121.264,3,-179.989,0\H,13,1.07674,11,122.67,3,-0.146071,0\C,2,1.45795,1,115.617,3,-176.624,0\H,16,1.08204,2,113.308,1,-24.9607,0\C,16,1.32799,2,126.37,1,151.398,0\H,18,1.07699,16,122.702,2,-1.42005,0\H,18,1.07704,16,121.003,2,-178.232,0\\\@

 Total job time:  22.05s(wall), 21.88s(cpu) 
 Tue Feb  8 13:32:54 2022

        *************************************************************
        *                                                           *
        *  Thank you very much for using Q-Chem.  Have a nice day.  *
        *                                                           *
        *************************************************************


