32
 energy: -45.612841634139 gnorm: 0.000073759796 xtb: 6.4.1 (23d549d)
C         0.44591295380000    3.73590845510000    0.50531030200000
C        -0.08490946230000    2.86821930010000   -0.34153204150000
C        -0.05739587860000    1.40784067610000   -0.16323222330000
C        -1.27322175130000    0.71045963690000   -0.07441873210000
C        -2.52138091390000    1.38529700340000   -0.11296293600000
C        -3.69777853880000    0.70334335600000   -0.05186641990000
C        -3.69820193760000   -0.70107410750000    0.05164141480000
C        -2.52219891610000   -1.38366112340000    0.11314574950000
C        -1.27367669850000   -0.70950446370000    0.07469197620000
C        -0.05833746480000   -1.40767482930000    0.16356685880000
C        -0.08681453460000   -2.86806538550000    0.34193051390000
C         0.44173714140000   -3.73611318050000   -0.50595012770000
C         1.15783850910000   -0.71003540500000    0.09427348650000
C         2.40801563870000   -1.36906752800000    0.23527067020000
C         3.58397182770000   -0.69312548440000    0.13180823780000
C         3.58445148370000    0.69057398850000   -0.13200024090000
C         2.40898321480000    1.36738616020000   -0.23540089480000
C         1.15832569210000    0.70934415900000   -0.09409947320000
H         0.39681017160000    4.79897748550000    0.33756202660000
H         0.93957723230000    3.41438073400000    1.40790629230000
H        -0.59718336360000    3.22195668810000   -1.22927779380000
H        -2.52416581020000    2.46248220290000   -0.18591737490000
H        -4.63901766560000    1.23252604490000   -0.08432508760000
H        -4.63973872780000   -1.22974162750000    0.08384985730000
H        -2.52553234100000   -2.46083661790000    0.18630269550000
H        -0.59793860410000   -3.22134681130000    1.23053990520000
H         0.93376515180000   -3.41487081320000   -1.40952691420000
H         0.39157252760000   -4.79915722920000   -0.33838397100000
H         2.40956514850000   -2.43004539410000    0.43309349370000
H         4.52460090550000   -1.21242810070000    0.24376935410000
H         4.52543362620000    1.20918873270000   -0.24418198010000
H         2.41136683740000    2.42830422900000   -0.43350930450000
