
Running Job 1 of 1 tidas/B035/conf-0/spe_input.inp
qchem tidas/B035/conf-0/spe_input.inp_134959.0 /home/a/aspuru/seifridm/acdc_laser/descriptor_computation/qchem134959/ 0
/scinet/niagara/software/commercial/qc52/exe/qcprog.exe_s tidas/B035/conf-0/spe_input.inp_134959.0 /home/a/aspuru/seifridm/acdc_laser/descriptor_computation/qchem134959/
                  Welcome to Q-Chem
     A Quantum Leap Into The Future Of Chemistry


 Q-Chem 5.2, Q-Chem, Inc., Pleasanton, CA (2019)

 User/host not on INCLUDE list for feature.
Feature:       QCHEM
License path:  /scinet/niagara/software/commercial/qc52/qcaux/license/qchem.lic:
FlexNet Licensing error:-39,147

