29
 energy: -51.516241149243 gnorm: 0.000035884148 xtb: 6.5.0 (unknown)
C           -1.03373682250000        4.55374785150000       -0.14870224200000
C           -0.06915812310000        3.65584050620000        0.00830576200000
C           -0.22176813280000        2.20411224490000        0.01990859670000
C           -1.46443963570000        1.57509444170000        0.03466416220000
C           -1.58555333660000        0.18554422690000        0.04158796400000
C           -2.92751751700000       -0.37834768100000        0.05646488130000
C           -3.28496307440000       -1.65394168940000        0.03179162100000
F           -2.50651757400000       -2.72334054230000       -0.01262148690000
F           -4.55751164950000       -2.04593226980000        0.04712920370000
C           -0.42766757680000       -0.59014671860000        0.03658315070000
C            0.81962845820000        0.02373497690000        0.02648603600000
C            2.02429043780000       -0.84750893760000        0.02537381060000
O            1.98936778220000       -2.05317912050000        0.05560056510000
O            3.16322380880000       -0.14707398920000       -0.01531467780000
C            4.37050415270000       -0.90961975910000       -0.02437809490000
C            5.53890834260000        0.04542294740000       -0.17805498590000
C            0.92365079670000        1.40881925180000        0.02054018230000
H           -0.81932102990000        5.60847479620000       -0.14764330120000
H           -2.06662399840000        4.28583651430000       -0.29069953340000
H            0.95112834360000        3.99757333050000        0.12993561360000
H           -2.36228727910000        2.17362667700000        0.04778797540000
H           -3.74665146690000        0.32568315970000        0.08838795910000
H           -0.46171087590000       -1.66732854910000        0.04404212070000
H            4.32801013560000       -1.62810241740000       -0.85075111590000
H            4.43704084280000       -1.47537007930000        0.91196367790000
H            5.44936690760000        0.60048526910000       -1.10811786250000
H            6.46900334200000       -0.51514612850000       -0.18724350390000
H            5.55750641590000        0.75109636740000        0.64821255470000
H            1.90087095140000        1.86628048490000        0.01321477410000
