25
 energy: -37.886000111506 gnorm: 0.000089049804 xtb: 6.4.1 (23d549d)
C         3.92201751430000    0.13321394020000    0.57278879480000
C         3.06922192520000   -0.42825083150000   -0.27381852740000
C         1.60349694230000   -0.34672794920000   -0.20252821320000
C         0.89870196420000   -1.53293386100000   -0.30896980600000
C        -0.48202444820000   -1.50737889940000   -0.17137603040000
N        -1.39801526600000   -2.53194598010000   -0.17479331100000
C        -2.54193515840000   -1.96955446180000    0.04134700800000
N        -2.46625001670000   -0.61196718500000    0.18324458430000
C        -1.14376713840000   -0.27985385080000    0.04753516640000
C        -0.46860095830000    0.93973196970000    0.11798675010000
C        -1.17548844490000    2.19375511210000    0.35729384590000
C        -2.36832409650000    2.51092379340000   -0.13226602530000
C         0.92923262490000    0.89067619420000   -0.02161154180000
N         1.63877213520000    2.06265671470000   -0.12539754540000
H         4.98591373680000   -0.00429420640000    0.47693512300000
H         3.59693291890000    0.72104249970000    1.41710241100000
H         3.45119528560000   -1.06516810560000   -1.06261686810000
H         1.41489173710000   -2.46730053510000   -0.46157338870000
H        -3.47431885430000   -2.49728972890000    0.10161360930000
H        -3.21753763830000    0.02069354530000    0.39898827100000
H        -0.67531302210000    2.90654239860000    1.00555357510000
H        -2.89244314410000    1.87202388480000   -0.82347523660000
H        -2.84725983660000    3.44509924580000    0.10726207480000
H         1.22111462420000    2.90481507850000    0.22786035110000
H         2.64039430530000    1.99693567560000   -0.07684121070000
