
Running Job 1 of 1 fragments/B020/conf-2/spe_input.inp
qchem fragments/B020/conf-2/spe_input.inp_305563.0 /gpfs/fs0/scratch/a/aspuru/rhickman/descriptor_computation/qchem305563/ 0
/scinet/niagara/software/commercial/qc52/exe/qcprog.exe_s fragments/B020/conf-2/spe_input.inp_305563.0 /gpfs/fs0/scratch/a/aspuru/rhickman/descriptor_computation/qchem305563/
                  Welcome to Q-Chem
     A Quantum Leap Into The Future Of Chemistry


 Q-Chem 5.2, Q-Chem, Inc., Pleasanton, CA (2019)

 License issued to: SRG Alan Aspuru-Guzik, University of Toronto

 Yihan Shao,  Zhengting Gan,  E. Epifanovsky,  A. T. B. Gilbert,  M. Wormit,  
 J. Kussmann,  A. W. Lange,  A. Behn,  Jia Deng,  Xintian Feng,  D. Ghosh,  
 M. Goldey,  P. R. Horn,  L. D. Jacobson,  I. Kaliman,  T. Kus,  A. Landau,  
 Jie Liu,  E. I. Proynov,  R. M. Richard,  R. P. Steele,  E. J. Sundstrom,  
 H. L. Woodcock III,  P. M. Zimmerman,  D. Zuev,  B. Albrecht,  E. Alguire,  
 S. A. Baeppler,  D. Barton,  Z. Benda,  Y. A. Bernard,  E. J. Berquist,  
 K. B. Bravaya,  H. Burton,  D. Casanova,  Chun-Min Chang,  Yunqing Chen,  
 A. Chien,  K. D. Closser,  M. P. Coons,  S. Coriani,  S. Dasgupta,  
 A. L. Dempwolff,  M. Diedenhofen,  Hainam Do,  R. G. Edgar,  Po-Tung Fang,  
 S. Faraji,  S. Fatehi,  Qingguo Feng,  K. D. Fenk,  J. Fosso-Tande,  
 J. Gayvert,  Qinghui Ge,  A. Ghysels,  G. Gidofalvi,  J. Gomes,  
 J. Gonthier,  A. Gunina,  D. Hait,  M. W. D. Hanson-Heine,  
 P. H. P. Harbach,  A. W. Hauser,  M. F. Herbst,  J. E. Herr,  
 E. G. Hohenstein,  Z. C. Holden,  Kerwin Hui,  B. C. Huynh,  T.-C. Jagau,  
 Hyunjun Ji,  B. Kaduk,  K. Khistyaev,  Jaehoon Kim,  P. Klunzinger,  K. Koh,  
 D. Kosenkov,  L. Koulias,  T. Kowalczyk,  C. M. Krauter,  A. Kunitsa,  
 Ka Un Lao,  A. Laurent,  K. V. Lawler,  Joonho Lee,  D. Lefrancois,  
 S. Lehtola,  D. S. Levine,  Yi-Pei Li,  You-Sheng Lin,  Fenglai Liu,  
 E. Livshits,  A. Luenser,  P. Manohar,  E. Mansoor,  S. F. Manzer,  
 Shan-Ping Mao,  Yuezhi Mao,  N. Mardirossian,  A. V. Marenich,  
 T. Markovich,  L. A. Martinez-Martinez,  S. A. Maurer,  N. J. Mayhall,  
 S. C. McKenzie,  J.-M. Mewes,  P. Morgante,  A. F. Morrison,  
 J. W. Mullinax,  K. Nanda,  T. S. Nguyen-Beck,  R. Olivares-Amaya,  
 J. A. Parkhill,  Zheng Pei,  T. M. Perrine,  F. Plasser,  P. Pokhilko,  
 S. Prager,  A. Prociuk,  E. Ramos,  D. R. Rehn,  F. Rob,  M. Scheurer,  
 M. Schneider,  N. Sergueev,  S. M. Sharada,  S. Sharma,  D. W. Small,  
 T. Stauch,  T. Stein,  Yu-Chuan Su,  A. J. W. Thom,  A. Tkatchenko,  
 T. Tsuchimochi,  N. M. Tubman,  L. Vogt,  M. L. Vidal,  O. Vydrov,  
 M. A. Watson,  J. Wenzel,  M. de Wergifosse,  T. A. Wesolowski,  A. White,  
 J. Witte,  A. Yamada,  Jun Yang,  K. Yao,  S. Yeganeh,  S. R. Yost,  
 Zhi-Qiang You,  A. Zech,  Igor Ying Zhang,  Xing Zhang,  Yan Zhao,  
 Ying Zhu,  B. R. Brooks,  G. K. L. Chan,  C. J. Cramer,  M. S. Gordon,  
 W. J. Hehre,  A. Klamt,  M. W. Schmidt,  C. D. Sherrill,  D. G. Truhlar,  
 A. Aspuru-Guzik,  R. Baer,  A. T. Bell,  N. A. Besley,  Jeng-Da Chai,  
 A. E. DePrince, III,  R. A. DiStasio Jr.,  A. Dreuw,  B. D. Dunietz,  
 T. R. Furlani,  Chao-Ping Hsu,  Yousung Jung,  Jing Kong,  D. S. Lambrecht,  
 WanZhen Liang,  C. Ochsenfeld,  V. A. Rassolov,  L. V. Slipchenko,  
 J. E. Subotnik,  T. Van Voorhis,  J. M. Herbert,  A. I. Krylov,  
 P. M. W. Gill,  M. Head-Gordon

 Contributors to earlier versions of Q-Chem not listed above: 
 R. D. Adamson,  B. Austin,  J. Baker,  G. J. O. Beran,  K. Brandhorst,  
 S. T. Brown,  E. F. C. Byrd,  A. K. Chakraborty,  C.-L. Cheng,  
 Siu Hung Chien,  D. M. Chipman,  D. L. Crittenden,  H. Dachsel,  
 R. J. Doerksen,  A. D. Dutoi,  L. Fusti-Molnar,  W. A. Goddard III,  
 A. Golubeva-Zadorozhnaya,  S. R. Gwaltney,  G. Hawkins,  A. Heyden,  
 S. Hirata,  G. Kedziora,  F. J. Keil,  C. Kelley,  Jihan Kim,  R. A. King,  
 R. Z. Khaliullin,  P. P. Korambath,  W. Kurlancheek,  A. M. Lee,  M. S. Lee,  
 S. V. Levchenko,  Ching Yeh Lin,  D. Liotard,  R. C. Lochan,  I. Lotan,  
 P. E. Maslen,  N. Nair,  D. P. O'Neill,  D. Neuhauser,  E. Neuscamman,  
 C. M. Oana,  R. Olson,  B. Peters,  R. Peverati,  P. A. Pieniazek,  
 Y. M. Rhee,  J. Ritchie,  M. A. Rohrdanz,  E. Rosta,  N. J. Russ,  
 H. F. Schaefer III,  N. E. Schultz,  N. Shenvi,  A. C. Simmonett,  A. Sodt,  
 D. Stuck,  K. S. Thanthiriwatte,  V. Vanovschi,  Tao Wang,  A. Warshel,  
 C. F. Williams,  Q. Wu,  X. Xu,  W. Zhang

 Please cite Q-Chem as follows:
 Y. Shao et al., Mol. Phys. 113, 184-215 (2015)
 DOI: 10.1080/00268976.2014.952696

 Q-Chem 5.2.1 for Intel X86 EM64T Linux

 Parts of Q-Chem use Armadillo 8.300.2 (Tropical Shenanigans).
 http://arma.sourceforge.net/

 Q-Chem begins on Tue Feb  8 13:41:55 2022  

Host: 
0

     Scratch files written to /gpfs/fs0/scratch/a/aspuru/rhickman/descriptor_computation/qchem305563//
 Jul1719 |scratch|qcdevops|jenkins|workspace|build_RNUM -1
Processing $rem in /scinet/niagara/software/commercial/qc52/config/preferences:
	 MEM_TOTAL  4000 
NAlpha2: 94
NElect   94
Mult     1

Checking the input file for inconsistencies... 	...done.

--------------------------------------------------------------
User input:
--------------------------------------------------------------
$molecule
0 1
C         1.11526790230000   -2.35562433340000   -0.99538487350000
C         0.28338298730000   -2.17223342830000    0.01816995600000
C        -0.70862708960000   -1.09470287310000    0.09607096320000
C        -2.01317006260000   -1.43090917470000    0.45436241930000
C        -3.02946268850000   -0.49520085120000    0.44736119350000
C        -2.76259605740000    0.81291661800000    0.08003937150000
C        -1.46584573560000    1.15107718320000   -0.24770388220000
F        -1.19822623730000    2.43323566590000   -0.57892748700000
C        -0.41312094890000    0.23632586780000   -0.23226909930000
C         0.93125027570000    0.73898271900000   -0.52453640470000
C         2.01638159330000    0.45812678770000    0.17439187930000
F         2.09778026430000   -0.34688885140000    1.22622908300000
F         3.21892248290000    0.96047103490000   -0.08812382220000
H         1.79358256670000   -3.19055957470000   -1.02386771680000
H         1.14375142720000   -1.68578653900000   -1.83916434600000
H         0.25266242180000   -2.88559604940000    0.83113975220000
H        -2.22900488670000   -2.45469530260000    0.72124131640000
H        -4.03269992390000   -0.78181170360000    0.72198523970000
H        -3.53269456100000    1.56692385240000    0.05509357550000
H         1.02897454040000    1.47031611550000   -1.31331422880000
$end

$rem
BASIS = 6-31G*
GUI = 2
METHOD = B3LYP
PRINT_ORBITALS false
MOLDEN_FORMAT false
--------------------------------------------------------------
 ----------------------------------------------------------------
             Standard Nuclear Orientation (Angstroms)
    I     Atom           X                Y                Z
 ----------------------------------------------------------------
    1      C      -1.3299928923     2.1222073110    -1.1543076476
    2      C      -0.4807657459     2.0814320888    -0.1393649087
    3      C       0.5844686462     1.0850847067     0.0148824291
    4      C       1.8646889728     1.5390526714     0.3282333756
    5      C       2.9437021899     0.6783228176     0.3858908239
    6      C       2.7663380972    -0.6710600006     0.1308958801
    7      C       1.4942263486    -1.1238964976    -0.1519475596
    8      F       1.3145355595    -2.4445261827    -0.3730993225
    9      C       0.3803870243    -0.2858134902    -0.1990273888
   10      C      -0.9275247283    -0.9025232680    -0.4323811433
   11      C      -2.0250315656    -0.6401059480     0.2542822888
   12      F      -2.1555336350     0.2419410490     1.2371351420
   13      F      -3.1912896091    -1.2442524382     0.0488120433
   14      H      -2.0650606701     2.9031159650    -1.2431668032
   15      H      -1.3171775622     1.3842479304    -1.9396161858
   16      H      -0.4945857151     2.8602576601     0.6116275079
   17      H       2.0103242745     2.5939048390     0.5071867663
   18      H       3.9262716658     1.0552564696     0.6236456242
   19      H       3.5869721381    -1.3696203460     0.1587189347
   20      H      -0.9791330519    -1.7018267182    -1.1569635057
 ----------------------------------------------------------------
 Molecular Point Group                 C1    NOp =  1
 Largest Abelian Subgroup              C1    NOp =  1
 Nuclear Repulsion Energy =         771.05828562 hartrees
 There are       47 alpha and       47 beta electrons
 Requested basis set is 6-31G(d)
 There are 66 shells and 209 basis functions

 Total QAlloc Memory Limit   4000 MB
 Mega-Array Size       188 MB
 MEM_STATIC part       192 MB
 A cutoff of  1.0D-08 yielded   1589 shell pairs
 There are     17184 function pairs
 Smallest overlap matrix eigenvalue = 3.64E-04

 Scale SEOQF with 1.000000e-01/1.000000e-01/1.000000e-01

 Standard Electronic Orientation quadrupole field applied
 Nucleus-field energy     =     0.0000000233 hartrees
 Guess from superposition of atomic densities
 Warning:  Energy on first SCF cycle will be non-variational
 SAD guess density has 94.000000 electrons

 -----------------------------------------------------------------------
  General SCF calculation program by
  Eric Jon Sundstrom, Paul Horn, Yuezhi Mao, Dmitri Zuev, Alec White,
  David Stuck, Shaama M.S., Shane Yost, Joonho Lee, David Small,
  Daniel Levine, Susi Lehtola, Hugh Burton, Evgeny Epifanovsky,
  Bang C. Huynh
 -----------------------------------------------------------------------
 Exchange:     0.2000 Hartree-Fock + 0.0800 Slater + 0.7200 B88
 Correlation:  0.1900 VWN1RPA + 0.8100 LYP
 Using SG-1 standard quadrature grid
 A restricted SCF calculation will be
 performed using DIIS
 SCF converges when DIIS error is below 1.0e-05
 ---------------------------------------
  Cycle       Energy         DIIS error
 ---------------------------------------
    1    -687.6036864109      5.45e-02  
    2    -684.5388423369      6.06e-03  
    3    -684.3950849590      7.94e-03  
    4    -684.7276300117      1.37e-03  
    5    -684.7372796892      4.11e-04  
    6    -684.7378999172      2.15e-04  
    7    -684.7381529951      5.06e-05  
    8    -684.7381663640      1.80e-05  
    9    -684.7381681079      3.52e-06  Convergence criterion met
 ---------------------------------------
 SCF time:   CPU 28.81s  wall 29.00s 
 SCF   energy in the final basis set =     -684.7381681079
 Total energy in the final basis set =     -684.7381681079
 
 --------------------------------------------------------------
 
                    Orbital Energies (a.u.)
 --------------------------------------------------------------
 
 Alpha MOs
 -- Occupied --
-24.7363 -24.7327 -24.7090 -10.3538 -10.2734 -10.2120 -10.2072 -10.2002
-10.1989 -10.1962 -10.1941 -10.1920 -10.1828  -1.2809  -1.2208  -1.2204
 -0.8796  -0.8124  -0.7943  -0.7441  -0.7347  -0.6528  -0.6275  -0.6112
 -0.5777  -0.5709  -0.5328  -0.5270  -0.5144  -0.4930  -0.4815  -0.4678
 -0.4615  -0.4407  -0.4372  -0.4356  -0.4285  -0.4107  -0.3995  -0.3861
 -0.3686  -0.3655  -0.3454  -0.2922  -0.2875  -0.2393  -0.2241
 -- Virtual --
 -0.0359  -0.0091   0.0383   0.0463   0.0916   0.1140   0.1246   0.1463
  0.1481   0.1649   0.1663   0.1767   0.1876   0.2033   0.2106   0.2861
  0.2868   0.3124   0.3347   0.3648   0.3767   0.3983   0.4100   0.4569
  0.4832   0.4937   0.5074   0.5152   0.5261   0.5425   0.5537   0.5572
  0.5678   0.5801   0.5930   0.6069   0.6112   0.6196   0.6357   0.6495
  0.6651   0.6778   0.6848   0.7134   0.7204   0.7724   0.8090   0.8205
  0.8335   0.8404   0.8590   0.8691   0.8807   0.8947   0.9003   0.9244
  0.9341   0.9575   0.9684   0.9856   1.0083   1.0512   1.0846   1.0975
  1.1302   1.1382   1.1401   1.1589   1.1728   1.2287   1.2364   1.2524
  1.2616   1.2715   1.3163   1.3382   1.3590   1.3887   1.3996   1.4232
  1.4464   1.4556   1.4639   1.4667   1.4864   1.4975   1.5174   1.5885
  1.5935   1.6502   1.6788   1.7307   1.7484   1.7501   1.7804   1.7989
  1.8210   1.8261   1.8393   1.8453   1.8652   1.8853   1.8948   1.9054
  1.9300   1.9559   1.9830   1.9886   2.0124   2.0154   2.0324   2.0551
  2.0725   2.1180   2.1331   2.1436   2.1749   2.2035   2.2181   2.2385
  2.2474   2.2630   2.3207   2.3320   2.3372   2.3814   2.4094   2.4816
  2.5117   2.5183   2.5593   2.5814   2.5908   2.6354   2.6697   2.6966
  2.7274   2.7379   2.7608   2.8234   2.8496   2.9212   3.0100   3.0396
  3.1061   3.1312   3.1758   3.2973   3.4622   4.0857   4.0971   4.1086
  4.1351   4.1909   4.2686   4.3019   4.4116   4.4455   4.7418   4.8076
  5.2193   5.4919
 --------------------------------------------------------------
 
          Ground-State Mulliken Net Atomic Charges

     Atom                 Charge (a.u.)
  ----------------------------------------
      1 C                    -0.326339
      2 C                    -0.143700
      3 C                     0.106386
      4 C                    -0.182698
      5 C                    -0.125069
      6 C                    -0.195102
      7 C                     0.327242
      8 F                    -0.290216
      9 C                     0.029418
     10 C                    -0.336379
     11 C                     0.584008
     12 F                    -0.233393
     13 F                    -0.245390
     14 H                     0.146412
     15 H                     0.152783
     16 H                     0.141330
     17 H                     0.131859
     18 H                     0.139110
     19 H                     0.145826
     20 H                     0.173913
  ----------------------------------------
  Sum of atomic charges =     0.000000

 -----------------------------------------------------------------
                    Cartesian Multipole Moments
 -----------------------------------------------------------------
    Charge (ESU x 10^10)
                 0.0000
    Dipole Moment (Debye)
         X       1.0950      Y       1.2036      Z      -0.2567
       Tot       1.6473
    Quadrupole Moments (Debye-Ang)
        XX     -67.9403     XY      -0.1127     YY     -69.9096
        XZ       3.0611     YZ       1.3773     ZZ     -71.9452
    Octopole Moments (Debye-Ang^2)
       XXX       2.2670    XXY      -2.8942    XYY     -13.2571
       YYY     -10.8653    XXZ       4.2078    XYZ       3.0933
       YYZ       6.7796    XZZ     -16.2070    YZZ     -11.4182
       ZZZ       4.5399
    Hexadecapole Moments (Debye-Ang^3)
      XXXX   -1532.2133   XXXY     -18.7815   XXYY    -397.8058
      XYYY       4.1950   YYYY    -891.0496   XXXZ       0.1943
      XXYZ       2.3209   XYYZ       3.3411   YYYZ      24.3353
      XXZZ    -310.0113   XYZZ      -0.6856   YYZZ    -183.9132
      XZZZ     -25.8067   YZZZ      12.2495   ZZZZ    -205.4250
 -----------------------------------------------------------------
Archival summary:
1\1\nia2015.scinet.local\SP\ProcedureUnspecified\6-31G*\3107\rhickman\TueFeb813:42:242022TueFeb813:42:242022\0\\#,ProcedureUnspecified,6-31G*,\\0,1\F\C,1,1.32704\C,2,1.32094,1,126.781\H,3,1.08008,2,117.132,1,175.921,0\F,2,1.32942,1,109.284,3,179.996,0\C,3,1.46472,2,125.13,1,2.13862,0\C,6,1.39472,3,117.742,2,133.417,0\F,7,1.35102,6,118.401,3,2.45472,0\C,7,1.37961,6,123.098,3,-176.467,0\H,9,1.07805,7,119.637,6,179.624,0\C,9,1.38467,7,118.407,6,0.30216,0\H,11,1.07891,9,119.848,7,179.121,0\C,11,1.38147,9,119.963,7,-1.22925,0\H,13,1.07979,11,119.762,9,-178.714,0\C,13,1.394,11,121.587,9,-0.093874,0\C,15,1.46671,13,117.996,11,-174.77,0\H,16,1.08201,15,115.166,13,-43.6438,0\C,16,1.32399,15,124.568,13,131.84,0\H,18,1.07612,16,121.586,15,-177.082,0\H,18,1.07771,16,121.997,15,2.27209,0\\\@

 Total job time:  29.40s(wall), 28.97s(cpu) 
 Tue Feb  8 13:42:24 2022

        *************************************************************
        *                                                           *
        *  Thank you very much for using Q-Chem.  Have a nice day.  *
        *                                                           *
        *************************************************************


