
Running Job 1 of 1 fragments/C044/conf-7/spe_input.inp
qchem fragments/C044/conf-7/spe_input.inp_321866.0 /gpfs/fs0/scratch/a/aspuru/rhickman/descriptor_computation/qchem321866/ 0
/scinet/niagara/software/commercial/qc52/exe/qcprog.exe_s fragments/C044/conf-7/spe_input.inp_321866.0 /gpfs/fs0/scratch/a/aspuru/rhickman/descriptor_computation/qchem321866/
                  Welcome to Q-Chem
     A Quantum Leap Into The Future Of Chemistry


 Q-Chem 5.2, Q-Chem, Inc., Pleasanton, CA (2019)

 License issued to: SRG Alan Aspuru-Guzik, University of Toronto

 Yihan Shao,  Zhengting Gan,  E. Epifanovsky,  A. T. B. Gilbert,  M. Wormit,  
 J. Kussmann,  A. W. Lange,  A. Behn,  Jia Deng,  Xintian Feng,  D. Ghosh,  
 M. Goldey,  P. R. Horn,  L. D. Jacobson,  I. Kaliman,  T. Kus,  A. Landau,  
 Jie Liu,  E. I. Proynov,  R. M. Richard,  R. P. Steele,  E. J. Sundstrom,  
 H. L. Woodcock III,  P. M. Zimmerman,  D. Zuev,  B. Albrecht,  E. Alguire,  
 S. A. Baeppler,  D. Barton,  Z. Benda,  Y. A. Bernard,  E. J. Berquist,  
 K. B. Bravaya,  H. Burton,  D. Casanova,  Chun-Min Chang,  Yunqing Chen,  
 A. Chien,  K. D. Closser,  M. P. Coons,  S. Coriani,  S. Dasgupta,  
 A. L. Dempwolff,  M. Diedenhofen,  Hainam Do,  R. G. Edgar,  Po-Tung Fang,  
 S. Faraji,  S. Fatehi,  Qingguo Feng,  K. D. Fenk,  J. Fosso-Tande,  
 J. Gayvert,  Qinghui Ge,  A. Ghysels,  G. Gidofalvi,  J. Gomes,  
 J. Gonthier,  A. Gunina,  D. Hait,  M. W. D. Hanson-Heine,  
 P. H. P. Harbach,  A. W. Hauser,  M. F. Herbst,  J. E. Herr,  
 E. G. Hohenstein,  Z. C. Holden,  Kerwin Hui,  B. C. Huynh,  T.-C. Jagau,  
 Hyunjun Ji,  B. Kaduk,  K. Khistyaev,  Jaehoon Kim,  P. Klunzinger,  K. Koh,  
 D. Kosenkov,  L. Koulias,  T. Kowalczyk,  C. M. Krauter,  A. Kunitsa,  
 Ka Un Lao,  A. Laurent,  K. V. Lawler,  Joonho Lee,  D. Lefrancois,  
 S. Lehtola,  D. S. Levine,  Yi-Pei Li,  You-Sheng Lin,  Fenglai Liu,  
 E. Livshits,  A. Luenser,  P. Manohar,  E. Mansoor,  S. F. Manzer,  
 Shan-Ping Mao,  Yuezhi Mao,  N. Mardirossian,  A. V. Marenich,  
 T. Markovich,  L. A. Martinez-Martinez,  S. A. Maurer,  N. J. Mayhall,  
 S. C. McKenzie,  J.-M. Mewes,  P. Morgante,  A. F. Morrison,  
 J. W. Mullinax,  K. Nanda,  T. S. Nguyen-Beck,  R. Olivares-Amaya,  
 J. A. Parkhill,  Zheng Pei,  T. M. Perrine,  F. Plasser,  P. Pokhilko,  
 S. Prager,  A. Prociuk,  E. Ramos,  D. R. Rehn,  F. Rob,  M. Scheurer,  
 M. Schneider,  N. Sergueev,  S. M. Sharada,  S. Sharma,  D. W. Small,  
 T. Stauch,  T. Stein,  Yu-Chuan Su,  A. J. W. Thom,  A. Tkatchenko,  
 T. Tsuchimochi,  N. M. Tubman,  L. Vogt,  M. L. Vidal,  O. Vydrov,  
 M. A. Watson,  J. Wenzel,  M. de Wergifosse,  T. A. Wesolowski,  A. White,  
 J. Witte,  A. Yamada,  Jun Yang,  K. Yao,  S. Yeganeh,  S. R. Yost,  
 Zhi-Qiang You,  A. Zech,  Igor Ying Zhang,  Xing Zhang,  Yan Zhao,  
 Ying Zhu,  B. R. Brooks,  G. K. L. Chan,  C. J. Cramer,  M. S. Gordon,  
 W. J. Hehre,  A. Klamt,  M. W. Schmidt,  C. D. Sherrill,  D. G. Truhlar,  
 A. Aspuru-Guzik,  R. Baer,  A. T. Bell,  N. A. Besley,  Jeng-Da Chai,  
 A. E. DePrince, III,  R. A. DiStasio Jr.,  A. Dreuw,  B. D. Dunietz,  
 T. R. Furlani,  Chao-Ping Hsu,  Yousung Jung,  Jing Kong,  D. S. Lambrecht,  
 WanZhen Liang,  C. Ochsenfeld,  V. A. Rassolov,  L. V. Slipchenko,  
 J. E. Subotnik,  T. Van Voorhis,  J. M. Herbert,  A. I. Krylov,  
 P. M. W. Gill,  M. Head-Gordon

 Contributors to earlier versions of Q-Chem not listed above: 
 R. D. Adamson,  B. Austin,  J. Baker,  G. J. O. Beran,  K. Brandhorst,  
 S. T. Brown,  E. F. C. Byrd,  A. K. Chakraborty,  C.-L. Cheng,  
 Siu Hung Chien,  D. M. Chipman,  D. L. Crittenden,  H. Dachsel,  
 R. J. Doerksen,  A. D. Dutoi,  L. Fusti-Molnar,  W. A. Goddard III,  
 A. Golubeva-Zadorozhnaya,  S. R. Gwaltney,  G. Hawkins,  A. Heyden,  
 S. Hirata,  G. Kedziora,  F. J. Keil,  C. Kelley,  Jihan Kim,  R. A. King,  
 R. Z. Khaliullin,  P. P. Korambath,  W. Kurlancheek,  A. M. Lee,  M. S. Lee,  
 S. V. Levchenko,  Ching Yeh Lin,  D. Liotard,  R. C. Lochan,  I. Lotan,  
 P. E. Maslen,  N. Nair,  D. P. O'Neill,  D. Neuhauser,  E. Neuscamman,  
 C. M. Oana,  R. Olson,  B. Peters,  R. Peverati,  P. A. Pieniazek,  
 Y. M. Rhee,  J. Ritchie,  M. A. Rohrdanz,  E. Rosta,  N. J. Russ,  
 H. F. Schaefer III,  N. E. Schultz,  N. Shenvi,  A. C. Simmonett,  A. Sodt,  
 D. Stuck,  K. S. Thanthiriwatte,  V. Vanovschi,  Tao Wang,  A. Warshel,  
 C. F. Williams,  Q. Wu,  X. Xu,  W. Zhang

 Please cite Q-Chem as follows:
 Y. Shao et al., Mol. Phys. 113, 184-215 (2015)
 DOI: 10.1080/00268976.2014.952696

 Q-Chem 5.2.1 for Intel X86 EM64T Linux

 Parts of Q-Chem use Armadillo 8.300.2 (Tropical Shenanigans).
 http://arma.sourceforge.net/

 Q-Chem begins on Tue Feb  8 14:30:26 2022  

Host: 
0

     Scratch files written to /gpfs/fs0/scratch/a/aspuru/rhickman/descriptor_computation/qchem321866//
 Jul1719 |scratch|qcdevops|jenkins|workspace|build_RNUM -1
Processing $rem in /scinet/niagara/software/commercial/qc52/config/preferences:
	 MEM_TOTAL  4000 
NAlpha2: 110
NElect   110
Mult     1

Checking the input file for inconsistencies... 	...done.

--------------------------------------------------------------
User input:
--------------------------------------------------------------
$molecule
0 1
C         4.02158404260000    1.55636832160000   -0.27592388730000
C         3.72117864710000    0.26639444910000   -0.17779665500000
C         2.38365864530000   -0.30217499080000   -0.08635496060000
C         2.22207881670000   -1.69155774100000   -0.05697807860000
C         0.97231369520000   -2.26494338540000    0.01606730190000
C        -0.19481682830000   -1.49214183600000    0.09662603040000
C        -1.47365113270000   -2.18529781540000    0.18920140580000
C        -2.55155508740000   -1.77680911890000    0.84514642260000
C        -0.01841585950000   -0.11210031390000    0.05727054040000
S        -1.33269420310000    1.08271608520000    0.04163390180000
O        -2.06943686470000    1.15804745960000    1.25592159650000
O        -0.88895706900000    2.29012426090000   -0.56241645760000
F        -2.33662235970000    0.38741308210000   -1.06410434880000
C         1.22474385920000    0.47314124590000   -0.04053299780000
H         5.04405265560000    1.88599941050000   -0.34041034700000
H         3.27270882680000    2.32875094820000   -0.30056455700000
H         4.52098072380000   -0.46354211470000   -0.16538767500000
H         3.09539257670000   -2.32602756690000   -0.10493101710000
H         0.87902888020000   -3.34103895390000    0.02548512070000
H        -1.47779548720000   -3.15682265180000   -0.29149257520000
H        -2.59236182900000   -0.84399184900000    1.37651051370000
H        -3.43924898250000   -2.38609803210000    0.86982006010000
H         1.26573793250000    1.54762598820000   -0.09780657680000
$end

$rem
BASIS = 6-31G*
GUI = 2
METHOD = B3LYP
PRINT_ORBITALS false
MOLDEN_FORMAT false
--------------------------------------------------------------
 ----------------------------------------------------------------
             Standard Nuclear Orientation (Angstroms)
    I     Atom           X                Y                Z
 ----------------------------------------------------------------
    1      C       4.0384423295    -1.4109933561    -0.1177653988
    2      C       3.6766862063    -0.1336651534    -0.0794232930
    3      C       2.3127988324     0.3744254487    -0.0320131890
    4      C       2.0898793187     1.7514872511     0.0745848951
    5      C       0.8145198390     2.2670718852     0.1350023291
    6      C      -0.3210146260     1.4479143930     0.0611911913
    7      C      -1.6318561473     2.0829446816     0.1148906209
    8      C      -2.7339435539     1.6807500447    -0.5036937613
    9      C      -0.0830355318     0.0800051005    -0.0356121009
   10      S      -1.3403987018    -1.1746467915    -0.0423042597
   11      O      -2.1554212322    -1.1800067528    -1.2079237159
   12      O      -0.8043566815    -2.4068430327     0.4202596379
   13      F      -2.2944712822    -0.6283330735     1.1845869015
   14      C       1.1879633232    -0.4498556888    -0.0720642100
   15      H       5.0761697185    -1.6944453902    -0.1499217869
   16      H       3.3270297361    -2.2183814921    -0.1142026934
   17      H       4.4415305325     0.6329219444    -0.0779707364
   18      H       2.9362773318     2.4214350303     0.1226342875
   19      H       0.6745428753     3.3340261855     0.2287434369
   20      H      -1.6445911880     3.0075502435     0.6804759464
   21      H      -2.7711815196     0.7968655568    -1.1132202926
   22      H      -3.6466368002     2.2456032605    -0.4155228913
   23      H       1.2790634521    -1.5219383678    -0.1146991053
 ----------------------------------------------------------------
 Molecular Point Group                 C1    NOp =  1
 Largest Abelian Subgroup              C1    NOp =  1
 Nuclear Repulsion Energy =        1024.45815558 hartrees
 There are       55 alpha and       55 beta electrons
 Requested basis set is 6-31G(d)
 There are 75 shells and 232 basis functions

 Total QAlloc Memory Limit   4000 MB
 Mega-Array Size       188 MB
 MEM_STATIC part       192 MB
 A cutoff of  1.0D-08 yielded   1884 shell pairs
 There are     19908 function pairs
 Smallest overlap matrix eigenvalue = 3.62E-04

 Scale SEOQF with 1.000000e-01/1.000000e-01/1.000000e+00

 Standard Electronic Orientation quadrupole field applied
 Nucleus-field energy     =     0.0000000042 hartrees
 Guess from superposition of atomic densities
 Warning:  Energy on first SCF cycle will be non-variational
 SAD guess density has 110.000000 electrons

 -----------------------------------------------------------------------
  General SCF calculation program by
  Eric Jon Sundstrom, Paul Horn, Yuezhi Mao, Dmitri Zuev, Alec White,
  David Stuck, Shaama M.S., Shane Yost, Joonho Lee, David Small,
  Daniel Levine, Susi Lehtola, Hugh Burton, Evgeny Epifanovsky,
  Bang C. Huynh
 -----------------------------------------------------------------------
 Exchange:     0.2000 Hartree-Fock + 0.0800 Slater + 0.7200 B88
 Correlation:  0.1900 VWN1RPA + 0.8100 LYP
 Using SG-1 standard quadrature grid
 A restricted SCF calculation will be
 performed using DIIS
 SCF converges when DIIS error is below 1.0e-05
 ---------------------------------------
  Cycle       Energy         DIIS error
 ---------------------------------------
    1   -1038.4054455493      5.50e-02  
    2   -1034.4857528092      7.90e-03  
    3   -1033.9297431863      1.33e-02  
    4   -1034.8129574157      2.26e-03  
    5   -1034.8434182801      6.61e-04  
    6   -1034.8454294896      3.10e-04  
    7   -1034.8460165098      7.49e-05  
    8   -1034.8460517814      2.81e-05  
    9   -1034.8460567388      6.24e-06  Convergence criterion met
 ---------------------------------------
 SCF time:   CPU 38.66s  wall 39.00s 
 SCF   energy in the final basis set =    -1034.8460567388
 Total energy in the final basis set =    -1034.8460567388
 
 --------------------------------------------------------------
 
                    Orbital Energies (a.u.)
 --------------------------------------------------------------
 
 Alpha MOs
 -- Occupied --
-89.1500 -24.7212 -19.1724 -19.1702 -10.2486 -10.2348 -10.2240 -10.2232
-10.2180 -10.2164 -10.2090 -10.2045 -10.1983 -10.1899  -8.1746  -6.1412
 -6.1382  -6.1367  -1.2336  -1.1291  -1.0457  -0.9050  -0.8350  -0.8027
 -0.7865  -0.7410  -0.6992  -0.6591  -0.6273  -0.5997  -0.5861  -0.5452
 -0.5347  -0.5101  -0.4987  -0.4915  -0.4816  -0.4637  -0.4514  -0.4442
 -0.4347  -0.4280  -0.4147  -0.4022  -0.3961  -0.3813  -0.3759  -0.3684
 -0.3479  -0.3426  -0.3369  -0.3220  -0.2894  -0.2840  -0.2356
 -- Virtual --
 -0.0695  -0.0463   0.0064   0.0197   0.0487   0.0616   0.0866   0.1047
  0.1135   0.1208   0.1242   0.1350   0.1532   0.1815   0.1833   0.1963
  0.2134   0.2230   0.2554   0.2750   0.2926   0.3051   0.3190   0.3308
  0.3439   0.3570   0.3660   0.3830   0.4081   0.4327   0.4731   0.4957
  0.5010   0.5110   0.5217   0.5356   0.5436   0.5539   0.5754   0.5771
  0.5819   0.5898   0.5989   0.6058   0.6132   0.6235   0.6511   0.6579
  0.6721   0.6907   0.7051   0.7344   0.7451   0.7710   0.7804   0.8030
  0.8103   0.8251   0.8328   0.8471   0.8533   0.8658   0.8687   0.8861
  0.9119   0.9247   0.9368   0.9423   0.9599   0.9819   0.9928   1.0024
  1.0239   1.0356   1.0413   1.0625   1.0823   1.0909   1.1135   1.1293
  1.1454   1.1808   1.1888   1.2113   1.2333   1.2445   1.2554   1.2953
  1.3149   1.3217   1.3487   1.3585   1.3824   1.4226   1.4287   1.4422
  1.4483   1.4601   1.4860   1.4926   1.5003   1.5208   1.5772   1.6229
  1.6576   1.6874   1.7355   1.7525   1.7618   1.7799   1.7938   1.7982
  1.8047   1.8224   1.8493   1.8510   1.8606   1.8804   1.8922   1.9081
  1.9370   1.9549   1.9632   1.9767   1.9918   2.0119   2.0193   2.0762
  2.1054   2.1142   2.1354   2.1417   2.1522   2.1838   2.2007   2.2278
  2.2449   2.2541   2.2630   2.2887   2.3155   2.3388   2.3727   2.4021
  2.4805   2.5056   2.5610   2.5804   2.6139   2.6203   2.6349   2.6769
  2.7017   2.7375   2.7756   2.7961   2.8545   2.8737   2.9054   2.9651
  3.0724   3.1954   3.4083   3.7612   3.9213   3.9967   4.0680   4.0888
  4.1212   4.1316   4.1713   4.2214   4.3033   4.3304   4.4895   4.7159
  4.7358
 --------------------------------------------------------------
 
          Ground-State Mulliken Net Atomic Charges

     Atom                 Charge (a.u.)
  ----------------------------------------
      1 C                    -0.346032
      2 C                    -0.114845
      3 C                     0.185354
      4 C                    -0.182425
      5 C                    -0.179088
      6 C                     0.173250
      7 C                    -0.141714
      8 C                    -0.353926
      9 C                    -0.232411
     10 S                     1.222519
     11 O                    -0.465667
     12 O                    -0.461032
     13 F                    -0.319940
     14 C                    -0.222701
     15 H                     0.155491
     16 H                     0.158305
     17 H                     0.135515
     18 H                     0.145841
     19 H                     0.147140
     20 H                     0.140922
     21 H                     0.214141
     22 H                     0.151372
     23 H                     0.189932
  ----------------------------------------
  Sum of atomic charges =     0.000000

 -----------------------------------------------------------------
                    Cartesian Multipole Moments
 -----------------------------------------------------------------
    Charge (ESU x 10^10)
                 0.0000
    Dipole Moment (Debye)
         X       3.3052      Y       3.6398      Z       0.1505
       Tot       4.9189
    Quadrupole Moments (Debye-Ang)
        XX     -79.3875     XY      -5.0255     YY     -83.7899
        XZ      -0.9227     YZ       1.7009     ZZ     -91.7471
    Octopole Moments (Debye-Ang^2)
       XXX       4.8876    XXY       5.9869    XYY       3.9466
       YYY      10.5807    XXZ       2.1585    XYZ       2.7613
       YYZ       5.1057    XZZ     -12.4603    YZZ      -6.5212
       ZZZ       8.3634
    Hexadecapole Moments (Debye-Ang^3)
      XXXX   -2287.9179   XXXY     -20.2122   XXYY    -564.0394
      XYYY       7.8225   YYYY   -1182.0831   XXXZ     -14.9673
      XXYZ      -6.9729   XYYZ     -12.1695   YYYZ      22.0621
      XXZZ    -493.4268   XYZZ       7.9584   YYZZ    -248.6965
      XZZZ     -15.1945   YZZZ      -5.3185   ZZZZ    -201.4515
 -----------------------------------------------------------------
Archival summary:
1\1\nia2015.scinet.local\SP\ProcedureUnspecified\6-31G*\112109\rhickman\TueFeb814:31:052022TueFeb814:31:052022\0\\#,ProcedureUnspecified,6-31G*,\\0,1\S\O,1,1.42113\O,1,1.42231,2,118.661\F,1,1.64741,2,105.282,3,118.673,0\C,1,1.77628,2,110.133,3,-134.404,0\C,5,1.3775,1,112.417,2,22.098,0\H,6,1.07679,5,117.521,1,0.909688,0\C,5,1.39183,1,124.99,2,-154.913,0\C,6,1.3951,5,121.058,1,-178.024,0\C,9,1.39906,6,117.082,5,1.30442,0\H,10,1.08052,9,119.265,6,179.138,0\C,10,1.37696,9,121.297,6,-0.096968,0\H,12,1.08017,10,119.583,9,179.288,0\C,9,1.45623,6,123.235,5,-179.452,0\H,14,1.08289,9,114.486,6,177.742,0\C,14,1.32812,9,126.272,6,-2.50892,0\H,16,1.0761,14,122.781,9,-0.191034,0\H,16,1.07622,14,121.118,9,-179.901,0\C,8,1.45755,5,125.77,1,-2.80262,0\H,19,1.08395,8,113.667,5,149.758,0\C,19,1.32627,8,126.728,5,-34.1826,0\H,21,1.07432,19,122.883,8,1.43117,0\H,21,1.07696,19,120.463,8,-178.229,0\\\@

 Total job time:  39.00s(wall), 38.87s(cpu) 
 Tue Feb  8 14:31:05 2022

        *************************************************************
        *                                                           *
        *  Thank you very much for using Q-Chem.  Have a nice day.  *
        *                                                           *
        *************************************************************


