
Running Job 1 of 1 fragments/C157/conf-1/spe_input.inp
qchem fragments/C157/conf-1/spe_input.inp_252894.0 /gpfs/fs0/scratch/a/aspuru/rhickman/descriptor_computation/qchem252894/ 0
/scinet/niagara/software/commercial/qc52/exe/qcprog.exe_s fragments/C157/conf-1/spe_input.inp_252894.0 /gpfs/fs0/scratch/a/aspuru/rhickman/descriptor_computation/qchem252894/
                  Welcome to Q-Chem
     A Quantum Leap Into The Future Of Chemistry


 Q-Chem 5.2, Q-Chem, Inc., Pleasanton, CA (2019)

 License issued to: SRG Alan Aspuru-Guzik, University of Toronto

 Yihan Shao,  Zhengting Gan,  E. Epifanovsky,  A. T. B. Gilbert,  M. Wormit,  
 J. Kussmann,  A. W. Lange,  A. Behn,  Jia Deng,  Xintian Feng,  D. Ghosh,  
 M. Goldey,  P. R. Horn,  L. D. Jacobson,  I. Kaliman,  T. Kus,  A. Landau,  
 Jie Liu,  E. I. Proynov,  R. M. Richard,  R. P. Steele,  E. J. Sundstrom,  
 H. L. Woodcock III,  P. M. Zimmerman,  D. Zuev,  B. Albrecht,  E. Alguire,  
 S. A. Baeppler,  D. Barton,  Z. Benda,  Y. A. Bernard,  E. J. Berquist,  
 K. B. Bravaya,  H. Burton,  D. Casanova,  Chun-Min Chang,  Yunqing Chen,  
 A. Chien,  K. D. Closser,  M. P. Coons,  S. Coriani,  S. Dasgupta,  
 A. L. Dempwolff,  M. Diedenhofen,  Hainam Do,  R. G. Edgar,  Po-Tung Fang,  
 S. Faraji,  S. Fatehi,  Qingguo Feng,  K. D. Fenk,  J. Fosso-Tande,  
 J. Gayvert,  Qinghui Ge,  A. Ghysels,  G. Gidofalvi,  J. Gomes,  
 J. Gonthier,  A. Gunina,  D. Hait,  M. W. D. Hanson-Heine,  
 P. H. P. Harbach,  A. W. Hauser,  M. F. Herbst,  J. E. Herr,  
 E. G. Hohenstein,  Z. C. Holden,  Kerwin Hui,  B. C. Huynh,  T.-C. Jagau,  
 Hyunjun Ji,  B. Kaduk,  K. Khistyaev,  Jaehoon Kim,  P. Klunzinger,  K. Koh,  
 D. Kosenkov,  L. Koulias,  T. Kowalczyk,  C. M. Krauter,  A. Kunitsa,  
 Ka Un Lao,  A. Laurent,  K. V. Lawler,  Joonho Lee,  D. Lefrancois,  
 S. Lehtola,  D. S. Levine,  Yi-Pei Li,  You-Sheng Lin,  Fenglai Liu,  
 E. Livshits,  A. Luenser,  P. Manohar,  E. Mansoor,  S. F. Manzer,  
 Shan-Ping Mao,  Yuezhi Mao,  N. Mardirossian,  A. V. Marenich,  
 T. Markovich,  L. A. Martinez-Martinez,  S. A. Maurer,  N. J. Mayhall,  
 S. C. McKenzie,  J.-M. Mewes,  P. Morgante,  A. F. Morrison,  
 J. W. Mullinax,  K. Nanda,  T. S. Nguyen-Beck,  R. Olivares-Amaya,  
 J. A. Parkhill,  Zheng Pei,  T. M. Perrine,  F. Plasser,  P. Pokhilko,  
 S. Prager,  A. Prociuk,  E. Ramos,  D. R. Rehn,  F. Rob,  M. Scheurer,  
 M. Schneider,  N. Sergueev,  S. M. Sharada,  S. Sharma,  D. W. Small,  
 T. Stauch,  T. Stein,  Yu-Chuan Su,  A. J. W. Thom,  A. Tkatchenko,  
 T. Tsuchimochi,  N. M. Tubman,  L. Vogt,  M. L. Vidal,  O. Vydrov,  
 M. A. Watson,  J. Wenzel,  M. de Wergifosse,  T. A. Wesolowski,  A. White,  
 J. Witte,  A. Yamada,  Jun Yang,  K. Yao,  S. Yeganeh,  S. R. Yost,  
 Zhi-Qiang You,  A. Zech,  Igor Ying Zhang,  Xing Zhang,  Yan Zhao,  
 Ying Zhu,  B. R. Brooks,  G. K. L. Chan,  C. J. Cramer,  M. S. Gordon,  
 W. J. Hehre,  A. Klamt,  M. W. Schmidt,  C. D. Sherrill,  D. G. Truhlar,  
 A. Aspuru-Guzik,  R. Baer,  A. T. Bell,  N. A. Besley,  Jeng-Da Chai,  
 A. E. DePrince, III,  R. A. DiStasio Jr.,  A. Dreuw,  B. D. Dunietz,  
 T. R. Furlani,  Chao-Ping Hsu,  Yousung Jung,  Jing Kong,  D. S. Lambrecht,  
 WanZhen Liang,  C. Ochsenfeld,  V. A. Rassolov,  L. V. Slipchenko,  
 J. E. Subotnik,  T. Van Voorhis,  J. M. Herbert,  A. I. Krylov,  
 P. M. W. Gill,  M. Head-Gordon

 Contributors to earlier versions of Q-Chem not listed above: 
 R. D. Adamson,  B. Austin,  J. Baker,  G. J. O. Beran,  K. Brandhorst,  
 S. T. Brown,  E. F. C. Byrd,  A. K. Chakraborty,  C.-L. Cheng,  
 Siu Hung Chien,  D. M. Chipman,  D. L. Crittenden,  H. Dachsel,  
 R. J. Doerksen,  A. D. Dutoi,  L. Fusti-Molnar,  W. A. Goddard III,  
 A. Golubeva-Zadorozhnaya,  S. R. Gwaltney,  G. Hawkins,  A. Heyden,  
 S. Hirata,  G. Kedziora,  F. J. Keil,  C. Kelley,  Jihan Kim,  R. A. King,  
 R. Z. Khaliullin,  P. P. Korambath,  W. Kurlancheek,  A. M. Lee,  M. S. Lee,  
 S. V. Levchenko,  Ching Yeh Lin,  D. Liotard,  R. C. Lochan,  I. Lotan,  
 P. E. Maslen,  N. Nair,  D. P. O'Neill,  D. Neuhauser,  E. Neuscamman,  
 C. M. Oana,  R. Olson,  B. Peters,  R. Peverati,  P. A. Pieniazek,  
 Y. M. Rhee,  J. Ritchie,  M. A. Rohrdanz,  E. Rosta,  N. J. Russ,  
 H. F. Schaefer III,  N. E. Schultz,  N. Shenvi,  A. C. Simmonett,  A. Sodt,  
 D. Stuck,  K. S. Thanthiriwatte,  V. Vanovschi,  Tao Wang,  A. Warshel,  
 C. F. Williams,  Q. Wu,  X. Xu,  W. Zhang

 Please cite Q-Chem as follows:
 Y. Shao et al., Mol. Phys. 113, 184-215 (2015)
 DOI: 10.1080/00268976.2014.952696

 Q-Chem 5.2.1 for Intel X86 EM64T Linux

 Parts of Q-Chem use Armadillo 8.300.2 (Tropical Shenanigans).
 http://arma.sourceforge.net/

 Q-Chem begins on Mon Feb  7 08:33:58 2022  

Host: 
0

     Scratch files written to /gpfs/fs0/scratch/a/aspuru/rhickman/descriptor_computation/qchem252894//
 Jul1719 |scratch|qcdevops|jenkins|workspace|build_RNUM -1
Processing $rem in /scinet/niagara/software/commercial/qc52/config/preferences:
	 MEM_TOTAL  4000 
NAlpha2: 102
NElect   102
Mult     1

Checking the input file for inconsistencies... 	...done.

--------------------------------------------------------------
User input:
--------------------------------------------------------------
$molecule
0 1
C         4.49072388960000    1.10671490160000    0.12474927230000
C         3.31643764200000    1.71239371680000   -0.02720396660000
C         2.04895229790000    1.02951140270000   -0.05376543070000
C         0.78033576670000    1.52894086810000   -0.20326317580000
C        -0.09950436550000    0.41911701670000   -0.15779992520000
C        -1.55427434940000    0.54420801610000   -0.27989162870000
O        -2.12520576160000    1.60220219730000   -0.39324520670000
O        -2.18723052440000   -0.64154774950000   -0.26526969860000
C        -3.61097276240000   -0.60768343820000   -0.36054627850000
C        -4.25445302810000   -0.36224695550000    0.99685607350000
C         0.70625209910000   -0.70022299490000    0.02118628460000
C         0.37478550650000   -2.09443920910000    0.14544709810000
C         1.28177753490000   -3.05446039040000    0.31660291330000
O         1.99394256080000   -0.31778638270000    0.08212806980000
H         5.41347646100000    1.65876098180000    0.13837102020000
H         4.55768159490000    0.03841514470000    0.23978838240000
H         3.24851357550000    2.78471292370000   -0.14278670470000
H         0.49037129320000    2.55107875810000   -0.33157589270000
H        -3.89142935950000   -1.58492185270000   -0.75977310480000
H        -3.90061707400000    0.18028658970000   -1.06356138010000
H        -3.92857391500000   -1.11552652150000    1.71043435860000
H        -5.33554949130000   -0.40612399080000    0.90092826490000
H        -3.97293068710000    0.62054197910000    1.36678401930000
H        -0.67924475390000   -2.31589525170000    0.08885945300000
H         2.33357377560000   -2.83026111780000    0.37086701120000
H         0.99710785100000   -4.08770390710000    0.40620333240000
$end

$rem
BASIS = 6-31G*
GUI = 2
METHOD = B3LYP
PRINT_ORBITALS false
MOLDEN_FORMAT false
--------------------------------------------------------------
 ----------------------------------------------------------------
             Standard Nuclear Orientation (Angstroms)
    I     Atom           X                Y                Z
 ----------------------------------------------------------------
    1      C       4.6245708981     0.4752152281     0.2150178245
    2      C       3.5471190852     1.2499628604     0.1269922465
    3      C       2.1978768333     0.7554954959     0.0342547947
    4      C       1.0123009749     1.4383886525    -0.0618393807
    5      C      -0.0128796898     0.4623227920    -0.1266050143
    6      C      -1.4348459194     0.7994527366    -0.2327430884
    7      O      -1.8527630412     1.9323609741    -0.2379969701
    8      O      -2.2256420261    -0.2825739015    -0.3362994880
    9      C      -3.6298045091    -0.0423092438    -0.4249955642
   10      C      -4.2495767946     0.1531215534     0.9514259491
   11      C       0.6283281261    -0.7701406419    -0.0626673419
   12      C       0.1059920370    -2.1103115897    -0.0786843446
   13      C       0.8695574009    -3.1990519720    -0.0066993725
   14      O       1.9556672807    -0.5779357584     0.0340096466
   15      H       5.6144952019     0.8898553494     0.2823689730
   16      H       4.5419380323    -0.5981470787     0.2218639490
   17      H       3.6293566597     2.3274737791     0.1200114794
   18      H       0.8678654875     2.4985105836    -0.0861148113
   19      H      -4.0377030915    -0.9264106037    -0.9199868899
   20      H      -3.7993198886     0.8444573882    -1.0446166595
   21      H      -4.0395128100    -0.7055435124     1.5849783913
   22      H      -5.3251326104     0.2693506969     0.8536129915
   23      H      -3.8395019966     1.0454710075     1.4178235428
   24      H      -0.9677616725    -2.1767320282    -0.1552743375
   25      H       1.9415056460    -3.1293868154     0.0678590866
   26      H       0.4438426803    -4.1865845096    -0.0209714724
 ----------------------------------------------------------------
 Molecular Point Group                 C1    NOp =  1
 Largest Abelian Subgroup              C1    NOp =  1
 Nuclear Repulsion Energy =         856.71804694 hartrees
 There are       51 alpha and       51 beta electrons
 Requested basis set is 6-31G(d)
 There are 80 shells and 234 basis functions

 Total QAlloc Memory Limit   4000 MB
 Mega-Array Size       188 MB
 MEM_STATIC part       192 MB
 A cutoff of  1.0D-08 yielded   1960 shell pairs
 There are     18795 function pairs
 Smallest overlap matrix eigenvalue = 5.25E-04

 Scale SEOQF with 1.000000e-02/1.000000e-01/1.000000e-01

 Standard Electronic Orientation quadrupole field applied
 Nucleus-field energy     =     0.0000000154 hartrees
 Guess from superposition of atomic densities
 Warning:  Energy on first SCF cycle will be non-variational
 SAD guess density has 102.000000 electrons

 -----------------------------------------------------------------------
  General SCF calculation program by
  Eric Jon Sundstrom, Paul Horn, Yuezhi Mao, Dmitri Zuev, Alec White,
  David Stuck, Shaama M.S., Shane Yost, Joonho Lee, David Small,
  Daniel Levine, Susi Lehtola, Hugh Burton, Evgeny Epifanovsky,
  Bang C. Huynh
 -----------------------------------------------------------------------
 Exchange:     0.2000 Hartree-Fock + 0.0800 Slater + 0.7200 B88
 Correlation:  0.1900 VWN1RPA + 0.8100 LYP
 Using SG-1 standard quadrature grid
 A restricted SCF calculation will be
 performed using DIIS
 SCF converges when DIIS error is below 1.0e-05
 ---------------------------------------
  Cycle       Energy         DIIS error
 ---------------------------------------
    1    -655.1619817352      5.37e-02  
    2    -651.7822889262      6.28e-03  
    3    -651.5194264076      9.49e-03  
    4    -651.9891470064      2.69e-03  
    5    -652.0301612439      5.47e-04  
    6    -652.0313556681      2.62e-04  
    7    -652.0317320728      5.91e-05  
    8    -652.0317513880      1.99e-05  
    9    -652.0317538370      6.67e-06  Convergence criterion met
 ---------------------------------------
 SCF time:   CPU 39.46s  wall 39.00s 
 SCF   energy in the final basis set =     -652.0317538370
 Total energy in the final basis set =     -652.0317538370
 
 --------------------------------------------------------------
 
                    Orbital Energies (a.u.)
 --------------------------------------------------------------
 
 Alpha MOs
 -- Occupied --
-19.2263 -19.1909 -19.1310 -10.3159 -10.2597 -10.2488 -10.2425 -10.2012
-10.2011 -10.1984 -10.1914 -10.1894 -10.1855 -10.1798  -1.1328  -1.1068
 -1.0158  -0.8271  -0.8217  -0.7841  -0.7718  -0.7214  -0.6769  -0.6368
 -0.6179  -0.5928  -0.5762  -0.5495  -0.5070  -0.4925  -0.4803  -0.4742
 -0.4646  -0.4619  -0.4518  -0.4436  -0.4221  -0.4104  -0.4038  -0.3860
 -0.3831  -0.3748  -0.3689  -0.3659  -0.3391  -0.3262  -0.2994  -0.2950
 -0.2753  -0.2745  -0.2042
 -- Virtual --
 -0.0567  -0.0190   0.0452   0.0971   0.0992   0.1082   0.1243   0.1259
  0.1393   0.1422   0.1472   0.1563   0.1620   0.1676   0.1808   0.1850
  0.1890   0.2019   0.2132   0.2286   0.2300   0.2700   0.2843   0.3215
  0.3256   0.3512   0.3611   0.3850   0.4038   0.4241   0.4364   0.4870
  0.5044   0.5077   0.5240   0.5329   0.5461   0.5511   0.5544   0.5635
  0.5650   0.5852   0.5967   0.6007   0.6068   0.6195   0.6319   0.6421
  0.6509   0.6543   0.6720   0.6832   0.6942   0.6947   0.7443   0.7620
  0.7655   0.7963   0.8213   0.8316   0.8379   0.8473   0.8550   0.8691
  0.8870   0.8918   0.8938   0.9016   0.9100   0.9353   0.9422   0.9552
  0.9725   0.9793   0.9872   0.9940   1.0252   1.0311   1.0734   1.0769
  1.0875   1.1016   1.1147   1.1470   1.1608   1.2189   1.2408   1.2476
  1.2761   1.3056   1.3116   1.3186   1.3281   1.3350   1.3602   1.3783
  1.3972   1.4385   1.4570   1.4827   1.4906   1.5024   1.5105   1.5229
  1.6129   1.6530   1.6605   1.6791   1.6982   1.7365   1.7426   1.7900
  1.7963   1.8198   1.8469   1.8631   1.8683   1.8871   1.9058   1.9278
  1.9361   1.9443   1.9628   1.9967   2.0061   2.0235   2.0682   2.0738
  2.0844   2.1165   2.1295   2.1463   2.1728   2.1843   2.1919   2.2182
  2.2288   2.2520   2.2850   2.2895   2.3137   2.3162   2.3395   2.3599
  2.3995   2.4139   2.4388   2.4990   2.5425   2.5598   2.5776   2.5937
  2.6172   2.6275   2.6736   2.7095   2.7461   2.7521   2.7863   2.8181
  2.8503   2.8787   2.9385   2.9690   3.0554   3.1615   3.2213   3.2739
  3.3654   3.9897   4.0251   4.1093   4.1200   4.1577   4.1849   4.2075
  4.2696   4.3467   4.4352   4.4841   4.5294   4.7059   4.7304
 --------------------------------------------------------------
 
          Ground-State Mulliken Net Atomic Charges

     Atom                 Charge (a.u.)
  ----------------------------------------
      1 C                    -0.353978
      2 C                    -0.108025
      3 C                     0.329260
      4 C                    -0.223569
      5 C                    -0.001059
      6 C                     0.587583
      7 O                    -0.492503
      8 O                    -0.475714
      9 C                    -0.045108
     10 C                    -0.464272
     11 C                     0.293663
     12 C                    -0.110811
     13 C                    -0.345402
     14 O                    -0.491826
     15 H                     0.148082
     16 H                     0.156824
     17 H                     0.145374
     18 H                     0.163626
     19 H                     0.149843
     20 H                     0.170163
     21 H                     0.155709
     22 H                     0.151701
     23 H                     0.179634
     24 H                     0.170799
     25 H                     0.160179
     26 H                     0.149825
  ----------------------------------------
  Sum of atomic charges =     0.000000

 -----------------------------------------------------------------
                    Cartesian Multipole Moments
 -----------------------------------------------------------------
    Charge (ESU x 10^10)
                 0.0000
    Dipole Moment (Debye)
         X      -0.0993      Y      -1.5153      Z       0.1108
       Tot       1.5225
    Quadrupole Moments (Debye-Ang)
        XX     -68.7356     XY       6.3856     YY     -79.4035
        XZ       0.6985     YZ       0.4606     ZZ     -83.5242
    Octopole Moments (Debye-Ang^2)
       XXX     -26.0336    XXY      -1.2473    XYY      16.3868
       YYY     -15.4175    XXZ      -0.7378    XYZ      -1.4141
       YYZ       0.9189    XZZ     -13.8514    YZZ       3.0720
       ZZZ      -3.0137
    Hexadecapole Moments (Debye-Ang^3)
      XXXX   -3060.2992   XXXY      27.1753   XXYY    -726.9509
      XYYY      28.8105   YYYY    -975.3351   XXXZ      36.0886
      XXYZ       4.3492   XYYZ       1.5444   YYYZ       2.0224
      XXZZ    -621.8590   XYZZ     -10.4645   YYZZ    -213.8312
      XZZZ       4.4244   YZZZ      -2.9774   ZZZZ    -157.6446
 -----------------------------------------------------------------
Archival summary:
1\1\nia0005.scinet.local\SP\ProcedureUnspecified\6-31G*\31112\rhickman\MonFeb708:34:372022MonFeb708:34:372022\0\\#,ProcedureUnspecified,6-31G*,\\0,1\O\C,1,1.34466\C,1,1.35525,2,108.486\C,3,1.37156,1,109.596,2,0.0754987,0\H,4,1.07019,3,127.695,1,179.98,0\C,2,1.39076,1,109.375,3,-0.0227396,0\C,2,1.43845,1,119.5,3,-179.768,0\H,7,1.07853,2,114.815,1,179.815,0\C,7,1.33175,2,123.564,1,-0.232715,0\H,9,1.07548,7,121.534,2,179.972,0\H,9,1.07679,7,121.441,2,-0.0641515,0\C,3,1.43998,1,120.353,2,-179.93,0\H,12,1.08067,3,114.41,1,-179.932,0\C,12,1.32999,3,124.284,1,0.0751007,0\H,14,1.07537,12,121.688,3,179.996,0\H,14,1.07656,12,121.267,3,-0.00421229,0\C,6,1.46523,2,130.894,1,-179.768,0\O,17,1.20754,6,123.508,2,177.654,0\O,17,1.3442,6,113.036,2,-2.93104,0\C,19,1.42733,17,116.618,6,179.134,0\H,20,1.09226,19,105.028,17,156.197,0\H,20,1.095,19,108.892,17,38.466,0\C,20,1.52212,19,111.468,17,-83.2734,0\H,23,1.08623,20,109.602,19,-176.369,0\H,23,1.08719,20,109.861,19,63.985,0\H,23,1.08758,20,110.289,19,-56.1647,0\\\@

 Total job time:  39.79s(wall), 39.66s(cpu) 
 Mon Feb  7 08:34:37 2022

        *************************************************************
        *                                                           *
        *  Thank you very much for using Q-Chem.  Have a nice day.  *
        *                                                           *
        *************************************************************


