
Running Job 1 of 1 fragments/A026/conf-0/spe_input.inp
qchem fragments/A026/conf-0/spe_input.inp_243810.0 /gpfs/fs0/scratch/a/aspuru/rhickman/descriptor_computation/qchem243810/ 0
/scinet/niagara/software/commercial/qc52/exe/qcprog.exe_s fragments/A026/conf-0/spe_input.inp_243810.0 /gpfs/fs0/scratch/a/aspuru/rhickman/descriptor_computation/qchem243810/
                  Welcome to Q-Chem
     A Quantum Leap Into The Future Of Chemistry


 Q-Chem 5.2, Q-Chem, Inc., Pleasanton, CA (2019)

 License issued to: SRG Alan Aspuru-Guzik, University of Toronto

 Yihan Shao,  Zhengting Gan,  E. Epifanovsky,  A. T. B. Gilbert,  M. Wormit,  
 J. Kussmann,  A. W. Lange,  A. Behn,  Jia Deng,  Xintian Feng,  D. Ghosh,  
 M. Goldey,  P. R. Horn,  L. D. Jacobson,  I. Kaliman,  T. Kus,  A. Landau,  
 Jie Liu,  E. I. Proynov,  R. M. Richard,  R. P. Steele,  E. J. Sundstrom,  
 H. L. Woodcock III,  P. M. Zimmerman,  D. Zuev,  B. Albrecht,  E. Alguire,  
 S. A. Baeppler,  D. Barton,  Z. Benda,  Y. A. Bernard,  E. J. Berquist,  
 K. B. Bravaya,  H. Burton,  D. Casanova,  Chun-Min Chang,  Yunqing Chen,  
 A. Chien,  K. D. Closser,  M. P. Coons,  S. Coriani,  S. Dasgupta,  
 A. L. Dempwolff,  M. Diedenhofen,  Hainam Do,  R. G. Edgar,  Po-Tung Fang,  
 S. Faraji,  S. Fatehi,  Qingguo Feng,  K. D. Fenk,  J. Fosso-Tande,  
 J. Gayvert,  Qinghui Ge,  A. Ghysels,  G. Gidofalvi,  J. Gomes,  
 J. Gonthier,  A. Gunina,  D. Hait,  M. W. D. Hanson-Heine,  
 P. H. P. Harbach,  A. W. Hauser,  M. F. Herbst,  J. E. Herr,  
 E. G. Hohenstein,  Z. C. Holden,  Kerwin Hui,  B. C. Huynh,  T.-C. Jagau,  
 Hyunjun Ji,  B. Kaduk,  K. Khistyaev,  Jaehoon Kim,  P. Klunzinger,  K. Koh,  
 D. Kosenkov,  L. Koulias,  T. Kowalczyk,  C. M. Krauter,  A. Kunitsa,  
 Ka Un Lao,  A. Laurent,  K. V. Lawler,  Joonho Lee,  D. Lefrancois,  
 S. Lehtola,  D. S. Levine,  Yi-Pei Li,  You-Sheng Lin,  Fenglai Liu,  
 E. Livshits,  A. Luenser,  P. Manohar,  E. Mansoor,  S. F. Manzer,  
 Shan-Ping Mao,  Yuezhi Mao,  N. Mardirossian,  A. V. Marenich,  
 T. Markovich,  L. A. Martinez-Martinez,  S. A. Maurer,  N. J. Mayhall,  
 S. C. McKenzie,  J.-M. Mewes,  P. Morgante,  A. F. Morrison,  
 J. W. Mullinax,  K. Nanda,  T. S. Nguyen-Beck,  R. Olivares-Amaya,  
 J. A. Parkhill,  Zheng Pei,  T. M. Perrine,  F. Plasser,  P. Pokhilko,  
 S. Prager,  A. Prociuk,  E. Ramos,  D. R. Rehn,  F. Rob,  M. Scheurer,  
 M. Schneider,  N. Sergueev,  S. M. Sharada,  S. Sharma,  D. W. Small,  
 T. Stauch,  T. Stein,  Yu-Chuan Su,  A. J. W. Thom,  A. Tkatchenko,  
 T. Tsuchimochi,  N. M. Tubman,  L. Vogt,  M. L. Vidal,  O. Vydrov,  
 M. A. Watson,  J. Wenzel,  M. de Wergifosse,  T. A. Wesolowski,  A. White,  
 J. Witte,  A. Yamada,  Jun Yang,  K. Yao,  S. Yeganeh,  S. R. Yost,  
 Zhi-Qiang You,  A. Zech,  Igor Ying Zhang,  Xing Zhang,  Yan Zhao,  
 Ying Zhu,  B. R. Brooks,  G. K. L. Chan,  C. J. Cramer,  M. S. Gordon,  
 W. J. Hehre,  A. Klamt,  M. W. Schmidt,  C. D. Sherrill,  D. G. Truhlar,  
 A. Aspuru-Guzik,  R. Baer,  A. T. Bell,  N. A. Besley,  Jeng-Da Chai,  
 A. E. DePrince, III,  R. A. DiStasio Jr.,  A. Dreuw,  B. D. Dunietz,  
 T. R. Furlani,  Chao-Ping Hsu,  Yousung Jung,  Jing Kong,  D. S. Lambrecht,  
 WanZhen Liang,  C. Ochsenfeld,  V. A. Rassolov,  L. V. Slipchenko,  
 J. E. Subotnik,  T. Van Voorhis,  J. M. Herbert,  A. I. Krylov,  
 P. M. W. Gill,  M. Head-Gordon

 Contributors to earlier versions of Q-Chem not listed above: 
 R. D. Adamson,  B. Austin,  J. Baker,  G. J. O. Beran,  K. Brandhorst,  
 S. T. Brown,  E. F. C. Byrd,  A. K. Chakraborty,  C.-L. Cheng,  
 Siu Hung Chien,  D. M. Chipman,  D. L. Crittenden,  H. Dachsel,  
 R. J. Doerksen,  A. D. Dutoi,  L. Fusti-Molnar,  W. A. Goddard III,  
 A. Golubeva-Zadorozhnaya,  S. R. Gwaltney,  G. Hawkins,  A. Heyden,  
 S. Hirata,  G. Kedziora,  F. J. Keil,  C. Kelley,  Jihan Kim,  R. A. King,  
 R. Z. Khaliullin,  P. P. Korambath,  W. Kurlancheek,  A. M. Lee,  M. S. Lee,  
 S. V. Levchenko,  Ching Yeh Lin,  D. Liotard,  R. C. Lochan,  I. Lotan,  
 P. E. Maslen,  N. Nair,  D. P. O'Neill,  D. Neuhauser,  E. Neuscamman,  
 C. M. Oana,  R. Olson,  B. Peters,  R. Peverati,  P. A. Pieniazek,  
 Y. M. Rhee,  J. Ritchie,  M. A. Rohrdanz,  E. Rosta,  N. J. Russ,  
 H. F. Schaefer III,  N. E. Schultz,  N. Shenvi,  A. C. Simmonett,  A. Sodt,  
 D. Stuck,  K. S. Thanthiriwatte,  V. Vanovschi,  Tao Wang,  A. Warshel,  
 C. F. Williams,  Q. Wu,  X. Xu,  W. Zhang

 Please cite Q-Chem as follows:
 Y. Shao et al., Mol. Phys. 113, 184-215 (2015)
 DOI: 10.1080/00268976.2014.952696

 Q-Chem 5.2.1 for Intel X86 EM64T Linux

 Parts of Q-Chem use Armadillo 8.300.2 (Tropical Shenanigans).
 http://arma.sourceforge.net/

 Q-Chem begins on Mon Feb  7 08:07:01 2022  

Host: 
0

     Scratch files written to /gpfs/fs0/scratch/a/aspuru/rhickman/descriptor_computation/qchem243810//
 Jul1719 |scratch|qcdevops|jenkins|workspace|build_RNUM -1
Processing $rem in /scinet/niagara/software/commercial/qc52/config/preferences:
	 MEM_TOTAL  4000 
NAlpha2: 190
NElect   190
Mult     1

Checking the input file for inconsistencies... 	...done.

--------------------------------------------------------------
User input:
--------------------------------------------------------------
$molecule
0 1
C         0.01812530330000    5.17260612370000   -0.25988347220000
O        -1.35815774330000    4.91708804300000   -0.13649307920000
C        -1.77850523820000    3.62122568280000   -0.06600634810000
C        -3.16714399220000    3.45433289750000    0.05448332000000
C        -3.73453117040000    2.20301199850000    0.11609736710000
C        -0.93315291100000    2.52155731280000   -0.10881695250000
C        -1.51076780040000    1.26253659490000   -0.01842229340000
C        -2.90672114270000    1.08689328950000    0.07547094970000
C        -3.14243160160000   -0.32889748090000    0.09206213940000
C        -4.28427471580000   -1.11551256110000    0.19170938910000
C        -4.14992373930000   -2.48426743980000    0.20473655890000
C        -2.88754464450000   -3.09444343240000    0.13825334460000
O        -2.90396511720000   -4.45822861290000    0.18207524950000
C        -1.68103599720000   -5.14782882670000    0.13011881560000
C        -1.73431760230000   -2.32923769370000    0.03794775860000
C        -1.87961479800000   -0.94925290640000   -0.00258436380000
N        -0.89737617270000    0.02306100740000   -0.06758800230000
C         0.47562871340000   -0.20634636380000   -0.16722527960000
C         1.36591235810000    0.44572082060000    0.68492884210000
C         2.72351402290000    0.22573618600000    0.58508941770000
C         3.23482632610000   -0.66111654990000   -0.36576933400000
C         4.65093657030000   -0.94231876120000   -0.52367473540000
C         5.67481297430000   -0.42397387490000    0.13942793260000
F         5.64765803930000    0.48154469550000    1.11060531990000
F         6.94082775850000   -0.76294412470000   -0.09794052830000
C         2.33436278060000   -1.31511607170000   -1.21161571110000
C         0.97772679960000   -1.09110487160000   -1.12069915270000
H         0.11529714040000    6.25663333350000   -0.29337960500000
H         0.42720888120000    4.74517531040000   -1.18156410320000
H         0.57872660720000    4.78678344950000    0.59826359190000
H        -3.77458395600000    4.34448779020000    0.08544249270000
H        -4.80464420150000    2.08828044570000    0.19107473140000
H         0.13349837370000    2.62653109780000   -0.22363740370000
H        -5.25912958740000   -0.65872979010000    0.26182617690000
H        -5.01100252970000   -3.12874694690000    0.27890918960000
H        -1.93587805440000   -6.20532474080000    0.17995166940000
H        -1.03652322070000   -4.89176433460000    0.97783762410000
H        -1.14556032240000   -4.94985956680000   -0.80473296430000
H        -0.75387295770000   -2.77637690690000    0.00891329170000
H         0.98099295770000    1.11216340410000    1.44177976310000
H         3.38579530900000    0.74046862500000    1.26142719470000
H         4.91688697400000   -1.66619587180000   -1.28062575430000
H         2.71049356800000   -1.99968936490000   -1.95783329500000
H         0.29738493390000   -1.58242346600000   -1.79964377150000
$end

$rem
BASIS = 6-31G*
GUI = 2
METHOD = B3LYP
PRINT_ORBITALS false
MOLDEN_FORMAT false
--------------------------------------------------------------
 ----------------------------------------------------------------
             Standard Nuclear Orientation (Angstroms)
    I     Atom           X                Y                Z
 ----------------------------------------------------------------
    1      C       0.1331303617    -5.1734209600     0.2581525465
    2      O      -1.2462818739    -4.9326269847     0.1402125254
    3      C      -1.6805911712    -3.6413773349     0.0697183513
    4      C      -3.0714096585    -3.4893299974    -0.0451471940
    5      C      -3.6522412167    -2.2441595591    -0.1060879341
    6      C      -0.8467335535    -2.5327830957     0.1074558006
    7      C      -1.4379943889    -1.2800620920     0.0177672597
    8      C      -2.8361077625    -1.1193042723    -0.0704833131
    9      C      -3.0868328683     0.2938933055    -0.0880252873
   10      C      -4.2373325495     1.0682636661    -0.1839397510
   11      C      -4.1175081629     2.4383412239    -0.1994126939
   12      C      -2.8613790133     3.0619085772    -0.1390881225
   13      O      -2.8923931397     4.4253807915    -0.1847132779
   14      C      -1.6766116709     5.1279306380    -0.1388581635
   15      C      -1.6997196009     2.3090674995    -0.0425927056
   16      C      -1.8302553277     0.9276840646     0.0004464723
   17      N      -0.8375330847    -0.0341092554     0.0626453050
   18      C       0.5333773974     0.2099263952     0.1561803124
   19      C       1.4269150078    -0.4339097858    -0.6988218742
   20      C       2.7825236803    -0.1994587207    -0.6050068678
   21      C       3.2884250193     0.6940916085     0.3424698110
   22      C       4.7021354732     0.9904569952     0.4940195817
   23      C       5.7286381370     0.4820143940    -0.1726796479
   24      F       5.7069747734    -0.4251164226    -1.1424895106
   25      F       6.9919861271     0.8346720678     0.0588856156
   26      C       2.3846612581     1.3397435664     1.1912045623
   27      C       1.0300982264     1.1012890132     1.1063137942
   28      H       0.2418911554    -6.2563129254     0.2927275305
   29      H       0.5415416141    -4.7403874563     1.1775131357
   30      H       0.6860147258    -4.7829164145    -0.6028784758
   31      H      -3.6695343847    -4.3858933043    -0.0723236850
   32      H      -4.7238122706    -2.1408420785    -0.1767123510
   33      H       0.2214401937    -2.6263234342     0.2179241015
   34      H      -5.2075921804     0.6011121632    -0.2493202263
   35      H      -4.9856527879     3.0735852958    -0.2708408180
   36      H      -1.9428207508     6.1826045275    -0.1890688039
   37      H      -1.0329948480     4.8774854161    -0.9889331588
   38      H      -1.1351527766     4.9369530499     0.7939996516
   39      H      -0.7239411854     2.7665767806    -0.0183044611
   40      H       1.0458841429    -1.1054526118    -1.4531279734
   41      H       3.4473608493    -0.7081265810    -1.2834221690
   42      H       4.9635985606     1.7181748205     1.2488482736
   43      H       2.7566678415     2.0293081826     1.9348895679
   44      H       0.3474599996     1.5863573196     1.7874441784
 ----------------------------------------------------------------
 Molecular Point Group                 C1    NOp =  1
 Largest Abelian Subgroup              C1    NOp =  1
 Nuclear Repulsion Energy =        2302.01173523 hartrees
 There are       95 alpha and       95 beta electrons
 Requested basis set is 6-31G(d)
 There are 142 shells and 439 basis functions

 Total QAlloc Memory Limit   4000 MB
 Mega-Array Size       188 MB
 MEM_STATIC part       192 MB
 A cutoff of  1.0D-08 yielded   4362 shell pairs
 There are     45073 function pairs
 Smallest overlap matrix eigenvalue = 2.45E-04

 Scale SEOQF with 1.000000e-02/1.000000e-02/1.000000e-01

 Standard Electronic Orientation quadrupole field applied
 Nucleus-field energy     =     0.0000000110 hartrees
 Guess from superposition of atomic densities
 Warning:  Energy on first SCF cycle will be non-variational
 SAD guess density has 190.000000 electrons

 -----------------------------------------------------------------------
  General SCF calculation program by
  Eric Jon Sundstrom, Paul Horn, Yuezhi Mao, Dmitri Zuev, Alec White,
  David Stuck, Shaama M.S., Shane Yost, Joonho Lee, David Small,
  Daniel Levine, Susi Lehtola, Hugh Burton, Evgeny Epifanovsky,
  Bang C. Huynh
 -----------------------------------------------------------------------
 Exchange:     0.2000 Hartree-Fock + 0.0800 Slater + 0.7200 B88
 Correlation:  0.1900 VWN1RPA + 0.8100 LYP
 Using SG-1 standard quadrature grid
 A restricted SCF calculation will be
 performed using DIIS
 SCF converges when DIIS error is below 1.0e-05
 ---------------------------------------
  Cycle       Energy         DIIS error
 ---------------------------------------
    1   -1260.4231144257      3.97e-02  
    2   -1253.0679066000      3.83e-03  
    3   -1252.8632615377      4.85e-03  
    4   -1253.3924968933      1.22e-03  
    5   -1253.4262219660      4.10e-04  
    6   -1253.4295831916      2.09e-04  
    7   -1253.4306837192      4.81e-05  
    8   -1253.4307275900      2.23e-05  
    9   -1253.4307399432      4.81e-06  Convergence criterion met
 ---------------------------------------
 SCF time:   CPU 158.40s  wall 159.00s 
 SCF   energy in the final basis set =    -1253.4307399432
 Total energy in the final basis set =    -1253.4307399432
 
 --------------------------------------------------------------
 
                    Orbital Energies (a.u.)
 --------------------------------------------------------------
 
 Alpha MOs
 -- Occupied --
-24.7512 -24.7403 -19.1730 -19.1727 -14.3819 -10.3636 -10.2404 -10.2402
-10.2391 -10.2373 -10.2368 -10.2193 -10.2192 -10.2151 -10.2103 -10.2027
-10.2006 -10.2003 -10.1996 -10.1826 -10.1825 -10.1810 -10.1808 -10.1759
-10.1755 -10.1713 -10.1712  -1.2918  -1.2309  -1.0630  -1.0627  -1.0006
 -0.8826  -0.8498  -0.8445  -0.8146  -0.7827  -0.7676  -0.7542  -0.7520
 -0.7362  -0.7256  -0.7067  -0.6742  -0.6581  -0.6342  -0.6311  -0.6088
 -0.6066  -0.5817  -0.5783  -0.5731  -0.5487  -0.5400  -0.5356  -0.5254
 -0.5116  -0.4980  -0.4897  -0.4751  -0.4705  -0.4683  -0.4674  -0.4637
 -0.4599  -0.4554  -0.4473  -0.4424  -0.4394  -0.4366  -0.4345  -0.4206
 -0.4169  -0.4136  -0.4120  -0.4012  -0.3886  -0.3856  -0.3707  -0.3677
 -0.3624  -0.3519  -0.3456  -0.3449  -0.3287  -0.3249  -0.3210  -0.3034
 -0.2981  -0.2683  -0.2510  -0.2424  -0.2353  -0.1945  -0.1841
 -- Virtual --
 -0.0394  -0.0142  -0.0094   0.0105   0.0322   0.0604   0.0615   0.0783
  0.0986   0.1023   0.1084   0.1170   0.1200   0.1338   0.1372   0.1437
  0.1504   0.1538   0.1578   0.1598   0.1653   0.1676   0.1680   0.1724
  0.1737   0.1813   0.1845   0.1902   0.2025   0.2103   0.2153   0.2158
  0.2329   0.2658   0.2702   0.2753   0.2790   0.2911   0.2949   0.3083
  0.3203   0.3272   0.3380   0.3516   0.3650   0.3833   0.4047   0.4094
  0.4280   0.4352   0.4488   0.4501   0.4745   0.4899   0.4914   0.5088
  0.5120   0.5167   0.5227   0.5268   0.5301   0.5324   0.5341   0.5413
  0.5473   0.5508   0.5565   0.5590   0.5626   0.5640   0.5705   0.5762
  0.5795   0.5803   0.5834   0.5884   0.5915   0.5974   0.6032   0.6069
  0.6084   0.6115   0.6214   0.6273   0.6358   0.6386   0.6480   0.6505
  0.6591   0.6613   0.6657   0.6754   0.7011   0.7154   0.7219   0.7289
  0.7415   0.7527   0.7607   0.7739   0.7917   0.7990   0.8065   0.8168
  0.8212   0.8309   0.8353   0.8409   0.8440   0.8491   0.8525   0.8540
  0.8685   0.8700   0.8749   0.8759   0.8762   0.8816   0.8853   0.9087
  0.9154   0.9231   0.9273   0.9398   0.9454   0.9465   0.9482   0.9606
  0.9699   0.9749   0.9926   1.0041   1.0089   1.0228   1.0254   1.0483
  1.0576   1.0600   1.0676   1.0770   1.0830   1.1090   1.1158   1.1173
  1.1354   1.1495   1.1540   1.1618   1.1742   1.1796   1.1964   1.2029
  1.2139   1.2178   1.2227   1.2289   1.2503   1.2605   1.2650   1.2734
  1.2825   1.2940   1.3030   1.3346   1.3395   1.3516   1.3598   1.3776
  1.3847   1.3860   1.3970   1.4085   1.4240   1.4363   1.4391   1.4455
  1.4490   1.4599   1.4638   1.4686   1.4772   1.4857   1.4887   1.4966
  1.4996   1.5094   1.5188   1.5274   1.5330   1.5532   1.5891   1.6123
  1.6286   1.6647   1.6677   1.7006   1.7127   1.7334   1.7421   1.7603
  1.7656   1.7756   1.7772   1.7844   1.7931   1.8100   1.8285   1.8309
  1.8532   1.8547   1.8587   1.8610   1.8752   1.8779   1.8881   1.8981
  1.9019   1.9194   1.9328   1.9472   1.9545   1.9580   1.9642   1.9658
  1.9727   1.9752   1.9885   1.9956   2.0106   2.0205   2.0221   2.0252
  2.0296   2.0623   2.0703   2.0769   2.0953   2.1075   2.1095   2.1104
  2.1198   2.1283   2.1331   2.1448   2.1515   2.1543   2.1579   2.1837
  2.2014   2.2208   2.2282   2.2304   2.2325   2.2483   2.2578   2.2673
  2.2764   2.2996   2.3041   2.3142   2.3162   2.3331   2.3452   2.3462
  2.3510   2.3620   2.3741   2.4054   2.4140   2.4256   2.4602   2.4813
  2.5160   2.5192   2.5414   2.5436   2.5499   2.5891   2.6058   2.6127
  2.6222   2.6315   2.6445   2.6583   2.6711   2.6738   2.6763   2.6799
  2.7001   2.7092   2.7351   2.7529   2.7647   2.7836   2.7940   2.8141
  2.8250   2.8400   2.8719   2.8867   2.9111   2.9412   2.9675   2.9829
  2.9879   3.0257   3.0521   3.1201   3.1254   3.1475   3.2101   3.2937
  3.3203   3.3840   3.4121   3.4934   3.5802   4.0584   4.0637   4.0695
  4.1021   4.1071   4.1243   4.1512   4.1616   4.1639   4.1760   4.1962
  4.2509   4.2820   4.2946   4.3459   4.3776   4.4016   4.4103   4.4460
  4.5144   4.6151   4.6198   4.7203   4.7960   4.8322   4.9003   5.2833
 --------------------------------------------------------------
 
          Ground-State Mulliken Net Atomic Charges

     Atom                 Charge (a.u.)
  ----------------------------------------
      1 C                    -0.210080
      2 O                    -0.509384
      3 C                     0.380770
      4 C                    -0.192685
      5 C                    -0.195875
      6 C                    -0.269852
      7 C                     0.313317
      8 C                     0.058347
      9 C                     0.058923
     10 C                    -0.195760
     11 C                    -0.192740
     12 C                     0.380068
     13 O                    -0.509244
     14 C                    -0.209602
     15 C                    -0.269632
     16 C                     0.313725
     17 N                    -0.742515
     18 C                     0.289335
     19 C                    -0.162198
     20 C                    -0.209337
     21 C                     0.203889
     22 C                    -0.300163
     23 C                     0.544871
     24 F                    -0.234241
     25 F                    -0.246470
     26 C                    -0.209404
     27 C                    -0.162059
     28 H                     0.167956
     29 H                     0.150202
     30 H                     0.146035
     31 H                     0.129783
     32 H                     0.129998
     33 H                     0.140587
     34 H                     0.130054
     35 H                     0.129797
     36 H                     0.167824
     37 H                     0.150243
     38 H                     0.144972
     39 H                     0.139797
     40 H                     0.155294
     41 H                     0.144789
     42 H                     0.161271
     43 H                     0.134515
     44 H                     0.154878
  ----------------------------------------
  Sum of atomic charges =     0.000000

 -----------------------------------------------------------------
                    Cartesian Multipole Moments
 -----------------------------------------------------------------
    Charge (ESU x 10^10)
                 0.0000
    Dipole Moment (Debye)
         X       2.6890      Y       0.9491      Z       0.6933
       Tot       2.9347
    Quadrupole Moments (Debye-Ang)
        XX    -157.1136     XY       0.4028     YY    -141.2560
        XZ       2.7979     YZ       3.1914     ZZ    -153.3538
    Octopole Moments (Debye-Ang^2)
       XXX       3.0403    XXY     -17.9601    XYY      81.0719
       YYY      32.9727    XXZ       5.1173    XYZ       6.0944
       YYZ       5.4076    XZZ      46.5405    YZZ       6.2696
       ZZZ      -6.2289
    Hexadecapole Moments (Debye-Ang^3)
      XXXX   -9198.4175   XXXY     111.6971   XXYY   -2616.1203
      XYYY    -138.0559   YYYY   -5765.7118   XXXZ      37.5901
      XXYZ      31.3505   XYYZ       5.3188   YYYZ     -17.8609
      XXZZ   -1595.1683   XYZZ       7.4748   YYZZ   -1115.6340
      XZZZ     -50.4990   YZZZ      12.8108   ZZZZ    -379.6904
 -----------------------------------------------------------------
Archival summary:
1\1\nia0005.scinet.local\SP\ProcedureUnspecified\6-31G*\2212217\rhickman\MonFeb708:09:412022MonFeb708:09:412022\0\\#,ProcedureUnspecified,6-31G*,\\0,1\N\C,1,1.38362\C,1,1.38382,2,108.245\C,3,1.38814,1,128.728,2,-177.077,0\H,4,1.07794,3,120.465,1,-0.720075,0\C,4,1.3877,3,117.596,1,178.334,0\O,6,1.36416,4,124.296,3,179.654,0\C,2,1.3882,1,128.729,3,-176.979,0\H,8,1.07798,2,120.447,1,-0.665405,0\C,8,1.38764,2,117.601,1,178.307,0\O,10,1.36459,8,124.294,2,179.679,0\C,1,1.3956,2,125.891,3,-179.929,0\C,12,1.39426,1,120.51,2,-130.751,0\H,13,1.07941,12,119.314,1,1.58187,0\C,13,1.37893,12,120.65,1,-179.71,0\H,15,1.0775,13,118.913,12,-179.673,0\C,12,1.39428,1,120.492,2,49.2565,0\H,17,1.07946,12,119.471,1,1.42208,0\C,17,1.37801,12,120.186,1,-179.859,0\H,19,1.08026,17,119.431,12,-179.722,0\C,15,1.39717,13,120.72,12,-0.411915,0\C,10,1.40369,8,120.739,2,-0.417959,0\H,22,1.07811,10,117.497,8,179.826,0\C,22,1.37539,10,121.332,8,-0.919575,0\H,24,1.07885,22,120.598,10,-178.857,0\C,24,1.39014,22,118.918,10,0.887054,0\C,6,1.40381,4,120.732,3,-0.465525,0\H,27,1.07811,6,117.493,4,179.837,0\C,27,1.37533,6,121.339,4,-0.859841,0\H,29,1.07885,27,120.602,6,-178.91,0\C,29,1.39019,27,118.914,6,0.866844,0\C,11,1.40492,10,118.613,8,0.341705,0\H,32,1.08891,11,105.74,10,179.93,0\H,32,1.09526,11,111.645,10,61.2462,0\H,32,1.09539,11,111.615,10,-61.4283,0\C,7,1.40523,6,118.624,4,-0.0431161,0\H,36,1.08889,7,105.731,6,-179.786,0\H,36,1.09524,7,111.638,6,61.5418,0\H,36,1.09524,7,111.62,6,-61.1369,0\C,21,1.45237,15,123.622,13,-179.844,0\H,40,1.0806,21,116.476,15,178.577,0\C,40,1.32541,21,128.543,15,-1.60495,0\F,42,1.32811,40,128.075,21,-0.0498948,0\F,42,1.33193,40,123.064,21,-179.935,0\\\@

 Total job time:  159.79s(wall), 158.89s(cpu) 
 Mon Feb  7 08:09:41 2022

        *************************************************************
        *                                                           *
        *  Thank you very much for using Q-Chem.  Have a nice day.  *
        *                                                           *
        *************************************************************


