26
 energy: -41.234193574852 gnorm: 0.000075608779 xtb: 6.5.0 (unknown)
C           -4.48352304290000        0.72078550290000       -0.42015997940000
C           -3.66895115520000       -0.07772566800000        0.25517862400000
C           -2.21078308330000       -0.13276693300000        0.13919873790000
C           -1.61943942050000       -1.39675364040000        0.16296452060000
C           -0.25857498900000       -1.59485378550000        0.02995799330000
C            0.29888750380000       -2.98677185840000        0.05819605420000
C            0.56856510870000       -0.46770665550000       -0.10667554610000
C            2.00634149240000       -0.64078493280000       -0.26184338490000
C            2.95870287980000        0.25287727850000       -0.04463944280000
F            2.83246717780000        1.50333167150000        0.38762658520000
F            4.25524669700000       -0.00746170460000       -0.22677081210000
C           -0.01598662470000        0.79654300130000       -0.09544191410000
C           -1.38346171280000        0.99066324520000        0.02328277790000
C           -1.90556662620000        2.39529323030000        0.05899694180000
H           -5.55172482420000        0.66867346670000       -0.29158870340000
H           -4.12729778020000        1.43103296930000       -1.14515770350000
H           -4.09221017750000       -0.81490851840000        0.92802961570000
H           -2.26292517460000       -2.25909662520000        0.27355287000000
H           -0.49369198130000       -3.70669610490000        0.24543621350000
H            1.04865411390000       -3.08976798040000        0.84116080870000
H            0.76415438170000       -3.23694812440000       -0.89526265400000
H            2.35981936050000       -1.60788629240000       -0.58507695230000
H            0.61176861630000        1.66811643360000       -0.19442980220000
H           -1.15909619920000        3.05917908300000        0.48990224130000
H           -2.81857004210000        2.45905657200000        0.64571033160000
H           -2.12082448640000        2.74924890920000       -0.94922048490000
