
Running Job 1 of 1 tidas/B031/conf-2/spe_input.inp
qchem tidas/B031/conf-2/spe_input.inp_134482.0 /home/a/aspuru/seifridm/acdc_laser/descriptor_computation/qchem134482/ 0
/gpfs/fs1/scinet/niagara/software/commercial/qc54/exe/qcprog.exe_s tidas/B031/conf-2/spe_input.inp_134482.0 /home/a/aspuru/seifridm/acdc_laser/descriptor_computation/qchem134482/
                  Welcome to Q-Chem
     A Quantum Leap Into The Future Of Chemistry


 Q-Chem 5.4, Q-Chem, Inc., Pleasanton, CA (2021)

 License issued to: SRG Alan Aspuru-Guzik, University of Toronto

 E. Epifanovsky,  A. T. B. Gilbert,  Xintian Feng,  Joonho Lee,  Yuezhi Mao,  
 N. Mardirossian,  P. Pokhilko,  A. White,  M. Wormit,  M. P. Coons,  
 A. L. Dempwolff,  Zhengting Gan,  D. Hait,  P. R. Horn,  L. D. Jacobson,  
 I. Kaliman,  J. Kussmann,  A. W. Lange,  Ka Un Lao,  D. S. Levine,  Jie Liu,  
 S. C. McKenzie,  A. F. Morrison,  K. Nanda,  F. Plasser,  D. R. Rehn,  
 M. L. Vidal,  Zhi-Qiang You,  Ying Zhu,  B. Alam,  B. Albrecht,  
 A. Aldossary,  E. Alguire,  J. H. Andersen,  D. Barton,  K. Begam,  A. Behn,  
 Y. A. Bernard,  E. J. Berquist,  H. Burton,  A. Carreras,  K. Carter-Fenk,  
 Romit Chakraborty,  A. D. Chien,  K. D. Closser,  V. Cofer-Shabica,  
 S. Dasgupta,  Jia Deng,  M. de Wergifosse,  M. Diedenhofen,  Hainam Do,  
 S. Ehlert,  Po-Tung Fang,  S. Fatehi,  Qingguo Feng,  T. Friedhoff,  
 J. Gayvert,  Qinghui Ge,  G. Gidofalvi,  M. Goldey,  J. Gomes,  
 C. Gonzalez-Espinoza,  S. Gulania,  A. Gunina,  M. W. D. Hanson-Heine,  
 P. H. P. Harbach,  A. W. Hauser,  M. F. Herbst,  M. Hernandez Vera,  
 M. Hodecker,  Z. C. Holden,  S. Houck,  Xunkun Huang,  Kerwin Hui,  
 B. C. Huynh,  M. Ivanov,  Hyunjun Ji,  Hanjie Jiang,  B. Kaduk,  S. Kaehler,  
 K. Khistyaev,  Jaehoon Kim,  P. Klunzinger,  Z. Koczor-Benda,  
 Joong Hoon Koh,  D. Kosenkov,  L. Koulias,  T. Kowalczyk,  C. M. Krauter,  
 K. Kue,  A. Kunitsa,  T. Kus,  A. Landau,  K. V. Lawler,  D. Lefrancois,  
 S. Lehtola,  Rain Li,  Yi-Pei Li,  Jiashu Liang,  M. Liebenthal,  
 Hung-Hsuan Lin,  You-Sheng Lin,  Fenglai Liu,  Kuan-Yu Liu,  
 M. Loipersberger,  A. Luenser,  A. Manjanath,  P. Manohar,  E. Mansoor,  
 S. F. Manzer,  Shan-Ping Mao,  A. V. Marenich,  T. Markovich,  S. Mason,  
 S. A. Maurer,  P. F. McLaughlin,  M. F. S. J. Menger,  J.-M. Mewes,  
 S. A. Mewes,  P. Morgante,  J. W. Mullinax,  K. J. Oosterbaan,  G. Paran,  
 Alexander C. Paul,  Suranjan K. Paul,  F. Pavosevic,  Zheng Pei,  S. Prager,  
 E. I. Proynov,  E. Ramos,  B. Rana,  A. E. Rask,  A. Rettig,  R. M. Richard,  
 F. Rob,  E. Rossomme,  T. Scheele,  M. Scheurer,  M. Schneider,  
 N. Sergueev,  S. M. Sharada,  W. Skomorowski,  D. W. Small,  C. J. Stein,  
 Yu-Chuan Su,  E. J. Sundstrom,  Zhen Tao,  J. Thirman,  T. Tsuchimochi,  
 N. M. Tubman,  S. P. Veccham,  O. Vydrov,  J. Wenzel,  J. Witte,  A. Yamada,  
 Kun Yao,  S. Yeganeh,  S. R. Yost,  A. Zech,  Igor Ying Zhang,  Xing Zhang,  
 Yu Zhang,  D. Zuev,  A. Aspuru-Guzik,  A. T. Bell,  N. A. Besley,  
 K. B. Bravaya,  B. R. Brooks,  D. Casanova,  Jeng-Da Chai,  S. Coriani,  
 C. J. Cramer,  A. E. DePrince, III,  R. A. DiStasio Jr.,  A. Dreuw,  
 B. D. Dunietz,  T. R. Furlani,  W. A. Goddard III,  S. Grimme,  
 S. Hammes-Schiffer,  T. Head-Gordon,  W. J. Hehre,  Chao-Ping Hsu,  
 T.-C. Jagau,  Yousung Jung,  A. Klamt,  Jing Kong,  D. S. Lambrecht,  
 WanZhen Liang,  N. J. Mayhall,  C. W. McCurdy,  J. B. Neaton,  T. Neudecker,  
 C. Ochsenfeld,  J. A. Parkhill,  R. Peverati,  V. A. Rassolov,  Yihan Shao,  
 L. V. Slipchenko,  R. P. Steele,  J. E. Subotnik,  A. J. W. Thom,  
 A. Tkatchenko,  D. G. Truhlar,  T. Van Voorhis,  T. A. Wesolowski,  
 K. B. Whaley,  H. L. Woodcock III,  P. M. Zimmerman,  S. Faraji,  
 P. M. W. Gill,  M. Head-Gordon,  J. M. Herbert,  A. I. Krylov

 Additional authors since Version 5.4.0: 
 Chandrima Chakravarty,  L. Cunha,  R. Kang,  Yongbin Kim,  S. Kotaru,  
 Shaozhi Li,  Xiangyuan Li,  F. Matz,  A. Molle,  V. Parravicini,  
 Haisheng Ren,  Hengyuan Shen,  Yingli Su,  Hung-Yi Tsai,  C. Utku,  
 Fang Wang,  Jeff Yang,  F. Zeller

 Contributors to earlier versions of Q-Chem not listed above: 
 R. D. Adamson,  B. Austin,  R. Baer,  J. Baker,  G. J. O. Beran,  
 K. Brandhorst,  S. T. Brown,  E. F. C. Byrd,  Arup K. Chakraborty,  
 G. K. L. Chan,  Chun-Min Chang,  Yunqing Chen,  C.-L. Cheng,  
 Siu Hung Chien,  D. M. Chipman,  D. L. Crittenden,  H. Dachsel,  
 R. J. Doerksen,  A. D. Dutoi,  R. G. Edgar,  J. Fosso-Tande,  
 L. Fusti-Molnar,  D. Ghosh,  A. Ghysels,  A. Golubeva-Zadorozhnaya,  
 J. Gonthier,  M. S. Gordon,  S. R. Gwaltney,  G. Hawkins,  J. E. Herr,  
 A. Heyden,  S. Hirata,  E. G. Hohenstein,  G. Kedziora,  F. J. Keil,  
 C. Kelley,  Jihan Kim,  R. A. King,  R. Z. Khaliullin,  P. P. Korambath,  
 W. Kurlancheek,  A. Laurent,  A. M. Lee,  M. S. Lee,  S. V. Levchenko,  
 Ching Yeh Lin,  D. Liotard,  E. Livshits,  R. C. Lochan,  I. Lotan,  
 L. A. Martinez-Martinez,  P. E. Maslen,  N. Nair,  D. P. O'Neill,  
 D. Neuhauser,  E. Neuscamman,  C. M. Oana,  R. Olivares-Amaya,  R. Olson,  
 T. M. Perrine,  B. Peters,  P. A. Pieniazek,  A. Prociuk,  Y. M. Rhee,  
 J. Ritchie,  M. A. Rohrdanz,  E. Rosta,  N. J. Russ,  H. F. Schaefer III,  
 M. W. Schmidt,  N. E. Schultz,  S. Sharma,  N. Shenvi,  C. D. Sherrill,  
 A. C. Simmonett,  A. Sodt,  T. Stein,  D. Stuck,  K. S. Thanthiriwatte,  
 V. Vanovschi,  L. Vogt,  Tao Wang,  A. Warshel,  M. A. Watson,  
 C. F. Williams,  Q. Wu,  X. Xu,  Jun Yang,  W. Zhang,  Yan Zhao

   Please cite Q-Chem as follows:
  "Software for the frontiers of quantum chemistry:
   An overview of developments in the Q-Chem 5 package"
   J. Chem. Phys. 155, 084801 (2021)
   https://doi.org/10.1063/5.0055522 (open access)

 Q-Chem 5.4.2 for Intel X86 EM64T Linux

 Parts of Q-Chem use Armadillo 9.900.5 (Nocturnal Misbehaviour).
 http://arma.sourceforge.net/

 Q-Chem begins on Fri Aug 12 13:11:43 2022  

 Host: 
0

     Scratch files written to /home/a/aspuru/seifridm/acdc_laser/descriptor_computation/qchem134482//
 Dec1321 |scratch|qcdevops|jenkins|workspace|build_RNUM 6959   
 Processing $rem in /gpfs/fs1/scinet/niagara/software/commercial/qc54/config/preferences:
 Processing $rem in /home/a/aspuru/seifridm/.qchemrc:

 Checking the input file for inconsistencies... 	...done.

--------------------------------------------------------------
User input:
--------------------------------------------------------------
$molecule
0 1
C           -4.40362713500000        0.79821382580000        0.60237920160000
C           -3.67479534330000       -0.08575068500000       -0.06452157030000
C           -2.21315522620000       -0.14394590560000       -0.11712178890000
C           -1.62559613530000       -1.40860106320000       -0.06054351980000
C           -0.25800179130000       -1.60522743330000       -0.06764180090000
C            0.29648683550000       -2.99529542270000        0.02831115510000
C            0.57635808020000       -0.47875407310000       -0.15662990580000
C            2.02267030460000       -0.64873392070000       -0.17834700890000
C            2.94575676940000        0.25777925030000        0.10251212470000
F            2.77134304460000        1.51760398340000        0.48798755910000
F            4.25522950180000        0.00417551740000        0.04858592280000
C           -0.00874032290000        0.78149068350000       -0.25569042270000
C           -1.38108535840000        0.97571226980000       -0.23660323990000
C           -1.90869013600000        2.37058729100000       -0.38701677700000
H           -5.47943471290000        0.74429296970000        0.61072616290000
H           -3.96351193860000        1.58546684590000        1.18852409420000
H           -4.17412956420000       -0.89332510920000       -0.58784240860000
H           -2.27537646380000       -2.27025682130000        0.01194807750000
H           -0.50895730910000       -3.71502525970000        0.14984493180000
H            0.96978876390000       -3.08692296890000        0.87924109780000
H            0.84944607730000       -3.25537153530000       -0.87430245460000
H            2.40829398140000       -1.62178097150000       -0.44084658400000
H            0.62408963870000        1.64812185800000       -0.36645940630000
H           -1.22199972380000        2.96714554290000       -0.98397208210000
H           -2.00114570100000        2.85054380060000        0.58713959570000
H           -2.88620159690000        2.37118577180000       -0.86293341490000
$end

$rem
BASIS = 6-31G*
GUI = 2
METHOD = B3LYP
PRINT_ORBITALS false
MOLDEN_FORMAT false
$end
--------------------------------------------------------------
 ----------------------------------------------------------------
             Standard Nuclear Orientation (Angstroms)
    I     Atom           X                Y                Z
 ----------------------------------------------------------------
    1      C       4.3296695085    -0.5127848126     0.6186259322
    2      C       3.5410143650     0.3251246079    -0.0396115207
    3      C       2.0792478570     0.2773952921    -0.0988220526
    4      C       1.4007896480     1.4949371472    -0.0276480184
    5      C       0.0225365586     1.5914622409    -0.0389587467
    6      C      -0.6322462929     2.9359199699     0.0734977090
    7      C      -0.7270724775     0.4085639139    -0.1478410239
    8      C      -2.1818303891     0.4729878647    -0.1745394300
    9      C      -3.0374710039    -0.5022897061     0.0889931139
   10      F      -2.7731982261    -1.7514160444     0.4577926611
   11      F      -4.3617237126    -0.3440422581     0.0319472172
   12      C      -0.0512178919    -0.8041540905    -0.2614438173
   13      C       1.3315492123    -0.8981055651    -0.2380879250
   14      C       1.9600913619    -2.2485406325    -0.4052024158
   15      H       5.3986362754    -0.3807352052     0.6331871021
   16      H       3.9457741633    -1.3382834775     1.1915228313
   17      H       3.9822337394     1.1743093986    -0.5491078105
   18      H       1.9856940093     2.4005330599     0.0601191933
   19      H       0.1180588357     3.7106269410     0.2091188367
   20      H      -1.3138809918     2.9661125122     0.9221881172
   21      H      -1.1990392104     3.1678358844    -0.8282093571
   22      H      -2.6363306571     1.4189856484    -0.4254376361
   23      H      -0.6186991537    -1.7129314120    -0.3874672997
   24      H       1.3211657499    -2.8849922548    -1.0138767961
   25      H       2.0833582788    -2.7343066588     0.5626423838
   26      H       2.9369636733    -2.1711270929    -0.8761092980
 ----------------------------------------------------------------
 Molecular Point Group                 C1    NOp =  1
 Largest Abelian Subgroup              C1    NOp =  1
 Nuclear Repulsion Energy =         844.81684352 hartrees
 There are       51 alpha and       51 beta electrons
 Requested basis set is 6-31G(d)
 There are 80 shells and 234 basis functions

 Total QAlloc Memory Limit   8000 MB
 Mega-Array Size       188 MB
 MEM_STATIC part       192 MB
 A cutoff of  1.0D-08 yielded   2113 shell pairs
 There are     19328 function pairs
 Smallest overlap matrix eigenvalue = 2.93E-04

 Scale SEOQF with 1.000000e-02/1.000000e-01/1.000000e+00

 Standard Electronic Orientation quadrupole field applied
 Nucleus-field energy     =     0.0000000048 hartrees
 Guess from superposition of atomic densities
 Warning:  Energy on first SCF cycle will be non-variational
 SAD guess density has 102.000000 electrons

 -----------------------------------------------------------------------
  General SCF calculation program by
  Eric Jon Sundstrom, Paul Horn, Yuezhi Mao, Dmitri Zuev, Alec White,
  David Stuck, Shaama M.S., Shane Yost, Joonho Lee, David Small,
  Daniel Levine, Susi Lehtola, Hugh Burton, Evgeny Epifanovsky,
  Bang C. Huynh
 -----------------------------------------------------------------------
 Exchange:     0.2000 Hartree-Fock + 0.0800 Slater + 0.7200 B88
 Correlation:  0.1900 VWN1RPA + 0.8100 LYP
 Using SG-1 standard quadrature grid
 A restricted SCF calculation will be
 performed using DIIS
 SCF converges when DIIS error is below 1.0e-05
 ---------------------------------------
  Cycle       Energy         DIIS error
 ---------------------------------------
    1    -667.2130326632      5.18e-02  
    2    -663.8820356728      6.01e-03  
    3    -663.7043285101      7.81e-03  
    4    -664.1266622979      1.53e-03  
    5    -664.1426009997      4.14e-04  
    6    -664.1433875149      2.28e-04  
    7    -664.1437550258      5.49e-05  
    8    -664.1437739500      1.77e-05  
    9    -664.1437760001      6.70e-06  Convergence criterion met
 ---------------------------------------
 SCF time:   CPU 62.41s  wall 64.00s 
 SCF   energy in the final basis set =     -664.1437760001
 Total energy in the final basis set =     -664.1437760001
 
 --------------------------------------------------------------
 
                    Orbital Energies (a.u.)
 --------------------------------------------------------------
 
 Alpha MOs
 -- Occupied --
-24.7409 -24.7312 -10.3540 -10.1993 -10.1982 -10.1919 -10.1901 -10.1888
-10.1884 -10.1830 -10.1805 -10.1789 -10.1786 -10.1742  -1.2816  -1.2208
 -0.8711  -0.8181  -0.7854  -0.7734  -0.7242  -0.7200  -0.6577  -0.6440
 -0.6094  -0.5966  -0.5704  -0.5404  -0.5204  -0.5158  -0.4918  -0.4717
 -0.4549  -0.4388  -0.4340  -0.4325  -0.4284  -0.4208  -0.4151  -0.4084
 -0.4020  -0.3931  -0.3769  -0.3694  -0.3509  -0.3367  -0.3299  -0.3020
 -0.2641  -0.2370  -0.2088
 -- Virtual --
 -0.0345   0.0065   0.0248   0.0764   0.0925   0.1120   0.1186   0.1278
  0.1414   0.1464   0.1514   0.1621   0.1677   0.1766   0.1840   0.1954
  0.2134   0.2237   0.2267   0.2535   0.2587   0.3097   0.3229   0.3365
  0.3491   0.3797   0.3861   0.4175   0.4294   0.4835   0.4873   0.5008
  0.5126   0.5212   0.5243   0.5448   0.5540   0.5593   0.5672   0.5726
  0.5866   0.5967   0.6020   0.6110   0.6207   0.6291   0.6344   0.6551
  0.6869   0.6888   0.7137   0.7323   0.7442   0.7559   0.7603   0.7696
  0.7776   0.7963   0.8169   0.8355   0.8516   0.8519   0.8620   0.8739
  0.8955   0.9021   0.9270   0.9360   0.9556   0.9666   0.9761   0.9913
  0.9948   1.0060   1.0171   1.0347   1.0676   1.1027   1.1157   1.1296
  1.1350   1.1715   1.1766   1.1957   1.2204   1.2237   1.2490   1.2621
  1.2827   1.3017   1.3264   1.3509   1.3791   1.3896   1.4163   1.4308
  1.4515   1.4649   1.4832   1.5009   1.5064   1.5358   1.5441   1.5640
  1.6175   1.6841   1.6961   1.7411   1.7722   1.7882   1.7968   1.7997
  1.8351   1.8376   1.8474   1.8532   1.8850   1.8898   1.9112   1.9190
  1.9331   1.9570   1.9778   1.9783   1.9968   2.0110   2.0291   2.0337
  2.0796   2.0936   2.0977   2.1355   2.1650   2.1792   2.2009   2.2215
  2.2410   2.2474   2.2621   2.2778   2.3054   2.3211   2.3439   2.3700
  2.3809   2.4043   2.4096   2.4520   2.4749   2.5188   2.5307   2.5425
  2.6086   2.6419   2.6876   2.7207   2.7336   2.7572   2.7924   2.8413
  2.8790   2.9162   2.9615   3.0349   3.0385   3.1408   3.1829   3.3182
  3.4813   4.0898   4.1073   4.1241   4.1368   4.1659   4.2211   4.2593
  4.2768   4.3516   4.4181   4.5365   4.7437   4.8270   5.2690
 --------------------------------------------------------------
 
          Ground-State Mulliken Net Atomic Charges

     Atom                 Charge (a.u.)
  ----------------------------------------
      1 C                    -0.336596
      2 C                    -0.140124
      3 C                     0.116813
      4 C                    -0.264465
      5 C                     0.132269
      6 C                    -0.538780
      7 C                     0.148715
      8 C                    -0.312921
      9 C                     0.550407
     10 F                    -0.235455
     11 F                    -0.251192
     12 C                    -0.265167
     13 C                     0.131562
     14 C                    -0.536038
     15 H                     0.141813
     16 H                     0.148185
     17 H                     0.133406
     18 H                     0.118470
     19 H                     0.159572
     20 H                     0.165785
     21 H                     0.162111
     22 H                     0.160400
     23 H                     0.127423
     24 H                     0.154316
     25 H                     0.161694
     26 H                     0.167796
  ----------------------------------------
  Sum of atomic charges =     0.000000

 -----------------------------------------------------------------
                    Cartesian Multipole Moments
 -----------------------------------------------------------------
    Charge (ESU x 10^10)
                 0.0000
    Dipole Moment (Debye)
         X       0.8226      Y       0.8499      Z      -0.1851
       Tot       1.1972
    Quadrupole Moments (Debye-Ang)
        XX     -80.1520     XY      -2.2977     YY     -75.2178
        XZ       0.7862     YZ      -0.6020     ZZ     -82.2627
    Octopole Moments (Debye-Ang^2)
       XXX     -15.3542    XXY       2.9243    XYY     -14.9263
       YYY      -8.9073    XXZ       1.1717    XYZ      -4.5748
       YYZ       0.3233    XZZ     -22.9873    YZZ      -8.0045
       ZZZ       5.2451
    Hexadecapole Moments (Debye-Ang^3)
      XXXX   -3011.2093   XXXY      35.3935   XXYY    -676.3777
      XYYY      53.3146   YYYY   -1089.6390   XXXZ       2.4231
      XXYZ     -19.7995   XYYZ       3.8646   YYYZ      -6.8114
      XXZZ    -533.5001   XYZZ      10.5052   YYZZ    -205.2879
      XZZZ     -15.1373   YZZZ      -9.0591   ZZZZ    -137.5161
 -----------------------------------------------------------------
 Total job time:  67.31s(wall), 62.97s(cpu) 
 Fri Aug 12 13:12:50 2022

        *************************************************************
        *                                                           *
        *  Thank you very much for using Q-Chem.  Have a nice day.  *
        *                                                           *
        *************************************************************


