
Running Job 1 of 1 fragments/C028/conf-1/spe_input.inp
qchem fragments/C028/conf-1/spe_input.inp_143106.0 /gpfs/fs0/scratch/a/aspuru/rhickman/descriptor_computation/qchem143106/ 0
/scinet/niagara/software/commercial/qc52/exe/qcprog.exe_s fragments/C028/conf-1/spe_input.inp_143106.0 /gpfs/fs0/scratch/a/aspuru/rhickman/descriptor_computation/qchem143106/
                  Welcome to Q-Chem
     A Quantum Leap Into The Future Of Chemistry


 Q-Chem 5.2, Q-Chem, Inc., Pleasanton, CA (2019)

 License issued to: SRG Alan Aspuru-Guzik, University of Toronto

 Yihan Shao,  Zhengting Gan,  E. Epifanovsky,  A. T. B. Gilbert,  M. Wormit,  
 J. Kussmann,  A. W. Lange,  A. Behn,  Jia Deng,  Xintian Feng,  D. Ghosh,  
 M. Goldey,  P. R. Horn,  L. D. Jacobson,  I. Kaliman,  T. Kus,  A. Landau,  
 Jie Liu,  E. I. Proynov,  R. M. Richard,  R. P. Steele,  E. J. Sundstrom,  
 H. L. Woodcock III,  P. M. Zimmerman,  D. Zuev,  B. Albrecht,  E. Alguire,  
 S. A. Baeppler,  D. Barton,  Z. Benda,  Y. A. Bernard,  E. J. Berquist,  
 K. B. Bravaya,  H. Burton,  D. Casanova,  Chun-Min Chang,  Yunqing Chen,  
 A. Chien,  K. D. Closser,  M. P. Coons,  S. Coriani,  S. Dasgupta,  
 A. L. Dempwolff,  M. Diedenhofen,  Hainam Do,  R. G. Edgar,  Po-Tung Fang,  
 S. Faraji,  S. Fatehi,  Qingguo Feng,  K. D. Fenk,  J. Fosso-Tande,  
 J. Gayvert,  Qinghui Ge,  A. Ghysels,  G. Gidofalvi,  J. Gomes,  
 J. Gonthier,  A. Gunina,  D. Hait,  M. W. D. Hanson-Heine,  
 P. H. P. Harbach,  A. W. Hauser,  M. F. Herbst,  J. E. Herr,  
 E. G. Hohenstein,  Z. C. Holden,  Kerwin Hui,  B. C. Huynh,  T.-C. Jagau,  
 Hyunjun Ji,  B. Kaduk,  K. Khistyaev,  Jaehoon Kim,  P. Klunzinger,  K. Koh,  
 D. Kosenkov,  L. Koulias,  T. Kowalczyk,  C. M. Krauter,  A. Kunitsa,  
 Ka Un Lao,  A. Laurent,  K. V. Lawler,  Joonho Lee,  D. Lefrancois,  
 S. Lehtola,  D. S. Levine,  Yi-Pei Li,  You-Sheng Lin,  Fenglai Liu,  
 E. Livshits,  A. Luenser,  P. Manohar,  E. Mansoor,  S. F. Manzer,  
 Shan-Ping Mao,  Yuezhi Mao,  N. Mardirossian,  A. V. Marenich,  
 T. Markovich,  L. A. Martinez-Martinez,  S. A. Maurer,  N. J. Mayhall,  
 S. C. McKenzie,  J.-M. Mewes,  P. Morgante,  A. F. Morrison,  
 J. W. Mullinax,  K. Nanda,  T. S. Nguyen-Beck,  R. Olivares-Amaya,  
 J. A. Parkhill,  Zheng Pei,  T. M. Perrine,  F. Plasser,  P. Pokhilko,  
 S. Prager,  A. Prociuk,  E. Ramos,  D. R. Rehn,  F. Rob,  M. Scheurer,  
 M. Schneider,  N. Sergueev,  S. M. Sharada,  S. Sharma,  D. W. Small,  
 T. Stauch,  T. Stein,  Yu-Chuan Su,  A. J. W. Thom,  A. Tkatchenko,  
 T. Tsuchimochi,  N. M. Tubman,  L. Vogt,  M. L. Vidal,  O. Vydrov,  
 M. A. Watson,  J. Wenzel,  M. de Wergifosse,  T. A. Wesolowski,  A. White,  
 J. Witte,  A. Yamada,  Jun Yang,  K. Yao,  S. Yeganeh,  S. R. Yost,  
 Zhi-Qiang You,  A. Zech,  Igor Ying Zhang,  Xing Zhang,  Yan Zhao,  
 Ying Zhu,  B. R. Brooks,  G. K. L. Chan,  C. J. Cramer,  M. S. Gordon,  
 W. J. Hehre,  A. Klamt,  M. W. Schmidt,  C. D. Sherrill,  D. G. Truhlar,  
 A. Aspuru-Guzik,  R. Baer,  A. T. Bell,  N. A. Besley,  Jeng-Da Chai,  
 A. E. DePrince, III,  R. A. DiStasio Jr.,  A. Dreuw,  B. D. Dunietz,  
 T. R. Furlani,  Chao-Ping Hsu,  Yousung Jung,  Jing Kong,  D. S. Lambrecht,  
 WanZhen Liang,  C. Ochsenfeld,  V. A. Rassolov,  L. V. Slipchenko,  
 J. E. Subotnik,  T. Van Voorhis,  J. M. Herbert,  A. I. Krylov,  
 P. M. W. Gill,  M. Head-Gordon

 Contributors to earlier versions of Q-Chem not listed above: 
 R. D. Adamson,  B. Austin,  J. Baker,  G. J. O. Beran,  K. Brandhorst,  
 S. T. Brown,  E. F. C. Byrd,  A. K. Chakraborty,  C.-L. Cheng,  
 Siu Hung Chien,  D. M. Chipman,  D. L. Crittenden,  H. Dachsel,  
 R. J. Doerksen,  A. D. Dutoi,  L. Fusti-Molnar,  W. A. Goddard III,  
 A. Golubeva-Zadorozhnaya,  S. R. Gwaltney,  G. Hawkins,  A. Heyden,  
 S. Hirata,  G. Kedziora,  F. J. Keil,  C. Kelley,  Jihan Kim,  R. A. King,  
 R. Z. Khaliullin,  P. P. Korambath,  W. Kurlancheek,  A. M. Lee,  M. S. Lee,  
 S. V. Levchenko,  Ching Yeh Lin,  D. Liotard,  R. C. Lochan,  I. Lotan,  
 P. E. Maslen,  N. Nair,  D. P. O'Neill,  D. Neuhauser,  E. Neuscamman,  
 C. M. Oana,  R. Olson,  B. Peters,  R. Peverati,  P. A. Pieniazek,  
 Y. M. Rhee,  J. Ritchie,  M. A. Rohrdanz,  E. Rosta,  N. J. Russ,  
 H. F. Schaefer III,  N. E. Schultz,  N. Shenvi,  A. C. Simmonett,  A. Sodt,  
 D. Stuck,  K. S. Thanthiriwatte,  V. Vanovschi,  Tao Wang,  A. Warshel,  
 C. F. Williams,  Q. Wu,  X. Xu,  W. Zhang

 Please cite Q-Chem as follows:
 Y. Shao et al., Mol. Phys. 113, 184-215 (2015)
 DOI: 10.1080/00268976.2014.952696

 Q-Chem 5.2.1 for Intel X86 EM64T Linux

 Parts of Q-Chem use Armadillo 8.300.2 (Tropical Shenanigans).
 http://arma.sourceforge.net/

 Q-Chem begins on Mon Feb  7 17:18:34 2022  

Host: 
0

     Scratch files written to /gpfs/fs0/scratch/a/aspuru/rhickman/descriptor_computation/qchem143106//
 Jul1719 |scratch|qcdevops|jenkins|workspace|build_RNUM -1
Processing $rem in /scinet/niagara/software/commercial/qc52/config/preferences:
	 MEM_TOTAL  4000 
NAlpha2: 86
NElect   86
Mult     1

Checking the input file for inconsistencies... 	...done.

--------------------------------------------------------------
User input:
--------------------------------------------------------------
$molecule
0 1
C        -3.57690482600000    1.29825091950000   -0.00049202660000
C        -2.88863055330000    0.16225728690000    0.00679173130000
C        -1.43931044800000    0.03545326070000    0.00263445000000
C        -0.56210328070000    1.11980650400000   -0.00201356990000
C         0.80366608900000    0.93505295480000   -0.00585180970000
F         1.56140430320000    2.05245180930000   -0.01240288050000
C         1.40170436770000   -0.33024068530000   -0.00596806400000
C         2.83213824970000   -0.59905120780000   -0.01065306270000
C         3.82644212960000    0.28215960900000    0.02297640220000
C         0.52058782460000   -1.41539479340000   -0.00289739810000
C        -0.84319246480000   -1.22985550150000    0.00228224390000
F        -1.62874752480000   -2.32879181570000    0.00624795170000
H        -4.65283953020000    1.29421873120000    0.00302114690000
H        -3.10881226420000    2.26746573100000   -0.01039293280000
H        -3.42168308290000   -0.77923158890000    0.01586111180000
H        -0.93869913610000    2.12955305090000   -0.00258127230000
H         3.07126903930000   -1.65517464970000   -0.04259991090000
H         3.67530698890000    1.34537267340000    0.05887123980000
H         4.85082311340000   -0.05008573660000    0.01607952230000
H         0.90744074520000   -2.42302307170000   -0.00338228610000
$end

$rem
BASIS = 6-31G*
GUI = 2
METHOD = B3LYP
PRINT_ORBITALS false
MOLDEN_FORMAT false
--------------------------------------------------------------
 ----------------------------------------------------------------
             Standard Nuclear Orientation (Angstroms)
    I     Atom           X                Y                Z
 ----------------------------------------------------------------
    1      C       3.5156906005    -1.4499557128     0.0008137787
    2      C       2.8811560388    -0.2830851771     0.0067386241
    3      C       1.4393283164    -0.0888185081     0.0024267925
    4      C       0.5124945127    -1.1310775091    -0.0009272950
    5      C      -0.8431702641    -0.8828214084    -0.0049891583
    6      F      -1.6522067251    -1.9636651072    -0.0102065574
    7      C      -1.3815360641     0.4089902660    -0.0066186400
    8      C      -2.7978740466     0.7442271438    -0.0116278417
    9      C      -3.8321991652    -0.0896028572     0.0230525362
   10      C      -0.4507598672     1.4518650177    -0.0048428543
   11      C       0.9028814143     1.2029184152     0.0005613450
   12      F       1.7388430901     2.2640190390     0.0032155032
   13      H       4.5906423815    -1.4961123236     0.0043243788
   14      H       3.0028965851    -2.3962917370    -0.0079299228
   15      H       3.4575459484     0.6325239634     0.0146840677
   16      H       0.8415792744    -2.1572917460    -0.0002876011
   17      H      -2.9874818046     1.8103166790    -0.0448371944
   18      H      -3.7308217635    -1.1586648895     0.0602181636
   19      H      -4.8399673622     0.2900561552     0.0157565009
   20      H      -0.7901893952     2.4764404931    -0.0065326280
 ----------------------------------------------------------------
 Molecular Point Group                 C1    NOp =  1
 Largest Abelian Subgroup              C1    NOp =  1
 Nuclear Repulsion Energy =         649.99730172 hartrees
 There are       43 alpha and       43 beta electrons
 Requested basis set is 6-31G(d)
 There are 64 shells and 196 basis functions

 Total QAlloc Memory Limit   4000 MB
 Mega-Array Size       188 MB
 MEM_STATIC part       192 MB
 A cutoff of  1.0D-08 yielded   1437 shell pairs
 There are     14827 function pairs
 Smallest overlap matrix eigenvalue = 3.45E-04

 Scale SEOQF with 1.000000e-01/1.000000e-01/1.000000e+00

 Standard Electronic Orientation quadrupole field applied
 Nucleus-field energy     =     0.0000000267 hartrees
 Guess from superposition of atomic densities
 Warning:  Energy on first SCF cycle will be non-variational
 SAD guess density has 86.000000 electrons

 -----------------------------------------------------------------------
  General SCF calculation program by
  Eric Jon Sundstrom, Paul Horn, Yuezhi Mao, Dmitri Zuev, Alec White,
  David Stuck, Shaama M.S., Shane Yost, Joonho Lee, David Small,
  Daniel Levine, Susi Lehtola, Hugh Burton, Evgeny Epifanovsky,
  Bang C. Huynh
 -----------------------------------------------------------------------
 Exchange:     0.2000 Hartree-Fock + 0.0800 Slater + 0.7200 B88
 Correlation:  0.1900 VWN1RPA + 0.8100 LYP
 Using SG-1 standard quadrature grid
 A restricted SCF calculation will be
 performed using DIIS
 SCF converges when DIIS error is below 1.0e-05
 ---------------------------------------
  Cycle       Energy         DIIS error
 ---------------------------------------
    1    -588.1393493377      5.65e-02  
    2    -585.3563229630      5.66e-03  
    3    -585.3356200801      6.07e-03  
    4    -585.5058866596      1.14e-03  
    5    -585.5119331353      3.70e-04  
    6    -585.5124967715      1.90e-04  
    7    -585.5126686524      2.29e-05  
    8    -585.5126704135      1.27e-05  
    9    -585.5126711718      1.84e-06  Convergence criterion met
 ---------------------------------------
 SCF time:   CPU 23.92s  wall 24.00s 
 SCF   energy in the final basis set =     -585.5126711718
 Total energy in the final basis set =     -585.5126711718
 
 --------------------------------------------------------------
 
                    Orbital Energies (a.u.)
 --------------------------------------------------------------
 
 Alpha MOs
 -- Occupied --
-24.7125 -24.7111 -10.2769 -10.2749 -10.2151 -10.2130 -10.2032 -10.2028
-10.1996 -10.1987 -10.1887 -10.1846  -1.2244  -1.2226  -0.8835  -0.8214
 -0.7783  -0.7579  -0.7301  -0.6567  -0.6330  -0.5886  -0.5816  -0.5399
 -0.5314  -0.5109  -0.4768  -0.4720  -0.4599  -0.4581  -0.4477  -0.4418
 -0.4245  -0.4144  -0.3907  -0.3725  -0.3711  -0.3632  -0.3417  -0.3319
 -0.2762  -0.2511  -0.2193
 -- Virtual --
 -0.0569  -0.0037   0.0188   0.0840   0.0871   0.1012   0.1224   0.1286
  0.1506   0.1659   0.1784   0.1863   0.1963   0.2119   0.2378   0.2667
  0.3021   0.3207   0.3320   0.3487   0.3703   0.3804   0.4236   0.4674
  0.4922   0.4933   0.5139   0.5224   0.5228   0.5536   0.5577   0.5647
  0.5748   0.5826   0.5967   0.6115   0.6152   0.6320   0.6427   0.6566
  0.6627   0.6805   0.6964   0.7199   0.7332   0.7991   0.8151   0.8220
  0.8333   0.8427   0.8536   0.8723   0.8831   0.9007   0.9116   0.9385
  0.9405   0.9770   0.9829   1.0288   1.0353   1.0673   1.1082   1.1183
  1.1740   1.1951   1.2017   1.2116   1.2283   1.2439   1.2589   1.2668
  1.3059   1.3358   1.3455   1.3850   1.4129   1.4211   1.4378   1.4423
  1.4771   1.4802   1.5006   1.5258   1.5515   1.5654   1.6612   1.6687
  1.7044   1.7252   1.7553   1.7627   1.8058   1.8098   1.8194   1.8676
  1.8715   1.8900   1.9057   1.9251   1.9419   1.9734   1.9798   1.9861
  2.0294   2.0411   2.1003   2.1181   2.1439   2.1518   2.1634   2.1906
  2.2081   2.2388   2.2469   2.2892   2.3016   2.3338   2.3649   2.3886
  2.3987   2.4136   2.4539   2.5462   2.5497   2.5872   2.6192   2.6622
  2.6821   2.6871   2.7164   2.7506   2.8563   2.8996   2.9275   2.9935
  3.0876   3.1130   3.1528   3.3302   3.4681   4.0647   4.0699   4.1010
  4.1298   4.1495   4.2166   4.3050   4.3305   4.5118   4.7285   5.3008
  5.6641
 --------------------------------------------------------------
 
          Ground-State Mulliken Net Atomic Charges

     Atom                 Charge (a.u.)
  ----------------------------------------
      1 C                    -0.346086
      2 C                    -0.111824
      3 C                     0.115119
      4 C                    -0.277818
      5 C                     0.333199
      6 F                    -0.293338
      7 C                     0.125286
      8 C                    -0.108858
      9 C                    -0.355493
     10 C                    -0.290484
     11 C                     0.315415
     12 F                    -0.293586
     13 H                     0.151454
     14 H                     0.145864
     15 H                     0.148379
     16 H                     0.148730
     17 H                     0.133587
     18 H                     0.165012
     19 H                     0.143936
     20 H                     0.151503
  ----------------------------------------
  Sum of atomic charges =     0.000000

 -----------------------------------------------------------------
                    Cartesian Multipole Moments
 -----------------------------------------------------------------
    Charge (ESU x 10^10)
                 0.0000
    Dipole Moment (Debye)
         X      -0.0359      Y      -0.0671      Z       0.0049
       Tot       0.0763
    Quadrupole Moments (Debye-Ang)
        XX     -61.7010     XY      -5.3931     YY     -65.2125
        XZ      -0.0172     YZ      -0.0951     ZZ     -70.8127
    Octopole Moments (Debye-Ang^2)
       XXX       0.7018    XXY      -1.8039    XYY      -1.8862
       YYY      -0.7885    XXZ       0.2265    XYZ       0.3924
       YYZ      -0.0887    XZZ       0.3588    YZZ       1.3576
       ZZZ      -0.0866
    Hexadecapole Moments (Debye-Ang^3)
      XXXX   -1922.1958   XXXY      28.2523   XXYY    -451.9982
      XYYY      15.9538   YYYY    -665.4636   XXXZ      -0.2156
      XXYZ      -0.9514   XYYZ       0.0265   YYYZ      -0.0690
      XXZZ    -399.9813   XYZZ      27.3435   YYZZ    -128.9078
      XZZZ       0.2541   YZZZ       0.2278   ZZZZ     -68.2445
 -----------------------------------------------------------------
Archival summary:
1\1\nia1977.scinet.local\SP\ProcedureUnspecified\6-31G*\2108\rhickman\MonFeb717:18:592022MonFeb717:18:592022\0\\#,ProcedureUnspecified,6-31G*,\\0,1\F\C,1,1.35011\C,2,1.37821,1,116.439\H,3,1.07769,2,118.157,1,-0.111507,0\C,3,1.39475,2,121.268,1,179.895,0\C,5,1.3987,3,115.802,2,-0.0376021,0\F,6,1.35084,5,119.215,3,-179.982,0\C,6,1.37635,5,122.973,3,-0.0286055,0\H,8,1.07934,6,118.75,5,-179.966,0\C,8,1.39783,6,121.329,5,0.106588,0\C,5,1.45486,3,123.972,2,-179.998,0\H,11,1.08196,5,114.518,3,-179.667,0\C,11,1.32825,5,126.209,3,0.389353,0\H,13,1.07595,11,120.994,5,179.974,0\H,13,1.07638,11,123.012,5,-0.00858296,0\C,10,1.45548,8,118.433,6,179.966,0\H,16,1.08333,10,113.396,8,1.80475,0\C,16,1.32902,10,127.787,8,-177.979,0\H,18,1.0745,16,123.484,10,-0.021587,0\H,18,1.07694,16,120.459,10,179.921,0\\\@

 Total job time:  24.61s(wall), 24.07s(cpu) 
 Mon Feb  7 17:18:59 2022

        *************************************************************
        *                                                           *
        *  Thank you very much for using Q-Chem.  Have a nice day.  *
        *                                                           *
        *************************************************************


