
Running Job 1 of 1 fragments/C115/conf-1/spe_input.inp
qchem fragments/C115/conf-1/spe_input.inp_306008.0 /gpfs/fs0/scratch/a/aspuru/rhickman/descriptor_computation/qchem306008/ 0
/scinet/niagara/software/commercial/qc52/exe/qcprog.exe_s fragments/C115/conf-1/spe_input.inp_306008.0 /gpfs/fs0/scratch/a/aspuru/rhickman/descriptor_computation/qchem306008/
                  Welcome to Q-Chem
     A Quantum Leap Into The Future Of Chemistry


 Q-Chem 5.2, Q-Chem, Inc., Pleasanton, CA (2019)

 License issued to: SRG Alan Aspuru-Guzik, University of Toronto

 Yihan Shao,  Zhengting Gan,  E. Epifanovsky,  A. T. B. Gilbert,  M. Wormit,  
 J. Kussmann,  A. W. Lange,  A. Behn,  Jia Deng,  Xintian Feng,  D. Ghosh,  
 M. Goldey,  P. R. Horn,  L. D. Jacobson,  I. Kaliman,  T. Kus,  A. Landau,  
 Jie Liu,  E. I. Proynov,  R. M. Richard,  R. P. Steele,  E. J. Sundstrom,  
 H. L. Woodcock III,  P. M. Zimmerman,  D. Zuev,  B. Albrecht,  E. Alguire,  
 S. A. Baeppler,  D. Barton,  Z. Benda,  Y. A. Bernard,  E. J. Berquist,  
 K. B. Bravaya,  H. Burton,  D. Casanova,  Chun-Min Chang,  Yunqing Chen,  
 A. Chien,  K. D. Closser,  M. P. Coons,  S. Coriani,  S. Dasgupta,  
 A. L. Dempwolff,  M. Diedenhofen,  Hainam Do,  R. G. Edgar,  Po-Tung Fang,  
 S. Faraji,  S. Fatehi,  Qingguo Feng,  K. D. Fenk,  J. Fosso-Tande,  
 J. Gayvert,  Qinghui Ge,  A. Ghysels,  G. Gidofalvi,  J. Gomes,  
 J. Gonthier,  A. Gunina,  D. Hait,  M. W. D. Hanson-Heine,  
 P. H. P. Harbach,  A. W. Hauser,  M. F. Herbst,  J. E. Herr,  
 E. G. Hohenstein,  Z. C. Holden,  Kerwin Hui,  B. C. Huynh,  T.-C. Jagau,  
 Hyunjun Ji,  B. Kaduk,  K. Khistyaev,  Jaehoon Kim,  P. Klunzinger,  K. Koh,  
 D. Kosenkov,  L. Koulias,  T. Kowalczyk,  C. M. Krauter,  A. Kunitsa,  
 Ka Un Lao,  A. Laurent,  K. V. Lawler,  Joonho Lee,  D. Lefrancois,  
 S. Lehtola,  D. S. Levine,  Yi-Pei Li,  You-Sheng Lin,  Fenglai Liu,  
 E. Livshits,  A. Luenser,  P. Manohar,  E. Mansoor,  S. F. Manzer,  
 Shan-Ping Mao,  Yuezhi Mao,  N. Mardirossian,  A. V. Marenich,  
 T. Markovich,  L. A. Martinez-Martinez,  S. A. Maurer,  N. J. Mayhall,  
 S. C. McKenzie,  J.-M. Mewes,  P. Morgante,  A. F. Morrison,  
 J. W. Mullinax,  K. Nanda,  T. S. Nguyen-Beck,  R. Olivares-Amaya,  
 J. A. Parkhill,  Zheng Pei,  T. M. Perrine,  F. Plasser,  P. Pokhilko,  
 S. Prager,  A. Prociuk,  E. Ramos,  D. R. Rehn,  F. Rob,  M. Scheurer,  
 M. Schneider,  N. Sergueev,  S. M. Sharada,  S. Sharma,  D. W. Small,  
 T. Stauch,  T. Stein,  Yu-Chuan Su,  A. J. W. Thom,  A. Tkatchenko,  
 T. Tsuchimochi,  N. M. Tubman,  L. Vogt,  M. L. Vidal,  O. Vydrov,  
 M. A. Watson,  J. Wenzel,  M. de Wergifosse,  T. A. Wesolowski,  A. White,  
 J. Witte,  A. Yamada,  Jun Yang,  K. Yao,  S. Yeganeh,  S. R. Yost,  
 Zhi-Qiang You,  A. Zech,  Igor Ying Zhang,  Xing Zhang,  Yan Zhao,  
 Ying Zhu,  B. R. Brooks,  G. K. L. Chan,  C. J. Cramer,  M. S. Gordon,  
 W. J. Hehre,  A. Klamt,  M. W. Schmidt,  C. D. Sherrill,  D. G. Truhlar,  
 A. Aspuru-Guzik,  R. Baer,  A. T. Bell,  N. A. Besley,  Jeng-Da Chai,  
 A. E. DePrince, III,  R. A. DiStasio Jr.,  A. Dreuw,  B. D. Dunietz,  
 T. R. Furlani,  Chao-Ping Hsu,  Yousung Jung,  Jing Kong,  D. S. Lambrecht,  
 WanZhen Liang,  C. Ochsenfeld,  V. A. Rassolov,  L. V. Slipchenko,  
 J. E. Subotnik,  T. Van Voorhis,  J. M. Herbert,  A. I. Krylov,  
 P. M. W. Gill,  M. Head-Gordon

 Contributors to earlier versions of Q-Chem not listed above: 
 R. D. Adamson,  B. Austin,  J. Baker,  G. J. O. Beran,  K. Brandhorst,  
 S. T. Brown,  E. F. C. Byrd,  A. K. Chakraborty,  C.-L. Cheng,  
 Siu Hung Chien,  D. M. Chipman,  D. L. Crittenden,  H. Dachsel,  
 R. J. Doerksen,  A. D. Dutoi,  L. Fusti-Molnar,  W. A. Goddard III,  
 A. Golubeva-Zadorozhnaya,  S. R. Gwaltney,  G. Hawkins,  A. Heyden,  
 S. Hirata,  G. Kedziora,  F. J. Keil,  C. Kelley,  Jihan Kim,  R. A. King,  
 R. Z. Khaliullin,  P. P. Korambath,  W. Kurlancheek,  A. M. Lee,  M. S. Lee,  
 S. V. Levchenko,  Ching Yeh Lin,  D. Liotard,  R. C. Lochan,  I. Lotan,  
 P. E. Maslen,  N. Nair,  D. P. O'Neill,  D. Neuhauser,  E. Neuscamman,  
 C. M. Oana,  R. Olson,  B. Peters,  R. Peverati,  P. A. Pieniazek,  
 Y. M. Rhee,  J. Ritchie,  M. A. Rohrdanz,  E. Rosta,  N. J. Russ,  
 H. F. Schaefer III,  N. E. Schultz,  N. Shenvi,  A. C. Simmonett,  A. Sodt,  
 D. Stuck,  K. S. Thanthiriwatte,  V. Vanovschi,  Tao Wang,  A. Warshel,  
 C. F. Williams,  Q. Wu,  X. Xu,  W. Zhang

 Please cite Q-Chem as follows:
 Y. Shao et al., Mol. Phys. 113, 184-215 (2015)
 DOI: 10.1080/00268976.2014.952696

 Q-Chem 5.2.1 for Intel X86 EM64T Linux

 Parts of Q-Chem use Armadillo 8.300.2 (Tropical Shenanigans).
 http://arma.sourceforge.net/

 Q-Chem begins on Tue Feb  8 13:42:54 2022  

Host: 
0

     Scratch files written to /gpfs/fs0/scratch/a/aspuru/rhickman/descriptor_computation/qchem306008//
 Jul1719 |scratch|qcdevops|jenkins|workspace|build_RNUM -1
Processing $rem in /scinet/niagara/software/commercial/qc52/config/preferences:
	 MEM_TOTAL  4000 
NAlpha2: 64
NElect   64
Mult     1

Checking the input file for inconsistencies... 	...done.

--------------------------------------------------------------
User input:
--------------------------------------------------------------
$molecule
0 1
C         1.84956337350000    2.01028940940000    0.25750246360000
C         1.92705252500000    0.76169059420000   -0.18381828520000
C         0.86183248750000   -0.21936690810000   -0.11733212100000
C         1.03572099490000   -1.57458984820000   -0.03866289470000
O        -0.14154840480000   -2.21235447360000    0.05346143850000
C        -1.09908251940000   -1.27213414920000    0.02635740840000
C        -0.56195232650000   -0.01768052490000   -0.07972865880000
C        -1.27842223830000    1.23508148540000   -0.21530417780000
C        -2.50523934330000    1.45249539390000    0.23938699660000
H         2.68627105400000    2.68392302090000    0.18393638920000
H         0.96141366680000    2.39832528160000    0.72585598470000
H         2.85469022250000    0.39280925560000   -0.60412294890000
H         1.92518297190000   -2.17335972050000   -0.02045497750000
H        -2.11671178170000   -1.60695814140000    0.05943776470000
H        -0.74450555800000    2.01690230960000   -0.73924015950000
H        -3.05155422530000    0.69929943610000    0.78132319800000
H        -3.00244394910000    2.39606827520000    0.09453062790000
$end

$rem
BASIS = 6-31G*
GUI = 2
METHOD = B3LYP
PRINT_ORBITALS false
MOLDEN_FORMAT false
--------------------------------------------------------------
 ----------------------------------------------------------------
             Standard Nuclear Orientation (Angstroms)
    I     Atom           X                Y                Z
 ----------------------------------------------------------------
    1      C      -1.5900168326    -2.1755047426     0.2667207024
    2      C      -1.8349094082    -0.9375966215    -0.1423986973
    3      C      -0.8960639546     0.1656165092    -0.0869192988
    4      C      -1.2316271137     1.4873521252     0.0291307126
    5      O      -0.1387536513     2.2632384267     0.0985705575
    6      C       0.9251047943     1.4487094424     0.0187694991
    7      C       0.5421423659     0.1399891197    -0.0995854281
    8      C       1.4013786045    -1.0122055211    -0.2874234062
    9      C       2.6605711860    -1.0857809933     0.1225933903
   10      H      -2.3400619676    -2.9454298732     0.2040984925
   11      H      -0.6453951941    -2.4603163083     0.6971961285
   12      H      -2.8146925668    -0.6775834386    -0.5240520178
   13      H      -2.1864981553     1.9716412308     0.0898337010
   14      H       1.8946548039     1.9055164991     0.0271851402
   15      H       0.9493207186    -1.8434620566    -0.8122814590
   16      H       3.1290516305    -0.2817502182     0.6643678207
   17      H       3.2641720924    -1.9579991563    -0.0602371098
 ----------------------------------------------------------------
 Molecular Point Group                 C1    NOp =  1
 Largest Abelian Subgroup              C1    NOp =  1
 Nuclear Repulsion Energy =         405.46087762 hartrees
 There are       32 alpha and       32 beta electrons
 Requested basis set is 6-31G(d)
 There are 52 shells and 151 basis functions

 Total QAlloc Memory Limit   4000 MB
 Mega-Array Size       188 MB
 MEM_STATIC part       192 MB
 A cutoff of  1.0D-08 yielded   1119 shell pairs
 There are     10124 function pairs
 Smallest overlap matrix eigenvalue = 6.51E-04

 Scale SEOQF with 1.000000e-01/1.000000e-01/1.000000e+00

 Standard Electronic Orientation quadrupole field applied
 Nucleus-field energy     =     0.0000000123 hartrees
 Guess from superposition of atomic densities
 Warning:  Energy on first SCF cycle will be non-variational
 SAD guess density has 64.000000 electrons

 -----------------------------------------------------------------------
  General SCF calculation program by
  Eric Jon Sundstrom, Paul Horn, Yuezhi Mao, Dmitri Zuev, Alec White,
  David Stuck, Shaama M.S., Shane Yost, Joonho Lee, David Small,
  Daniel Levine, Susi Lehtola, Hugh Burton, Evgeny Epifanovsky,
  Bang C. Huynh
 -----------------------------------------------------------------------
 Exchange:     0.2000 Hartree-Fock + 0.0800 Slater + 0.7200 B88
 Correlation:  0.1900 VWN1RPA + 0.8100 LYP
 Using SG-1 standard quadrature grid
 A restricted SCF calculation will be
 performed using DIIS
 SCF converges when DIIS error is below 1.0e-05
 ---------------------------------------
  Cycle       Energy         DIIS error
 ---------------------------------------
    1    -386.9341799994      6.73e-02  
    2    -384.6794091021      6.56e-03  
    3    -384.6337720680      7.53e-03  
    4    -384.7981930928      2.53e-03  
    5    -384.8162342256      4.78e-04  
    6    -384.8165895913      2.64e-04  
    7    -384.8167731421      4.88e-05  
    8    -384.8167784480      2.51e-05  
    9    -384.8167801746      3.21e-06  Convergence criterion met
 ---------------------------------------
 SCF time:   CPU 14.49s  wall 15.00s 
 SCF   energy in the final basis set =     -384.8167801746
 Total energy in the final basis set =     -384.8167801746
 
 --------------------------------------------------------------
 
                    Orbital Energies (a.u.)
 --------------------------------------------------------------
 
 Alpha MOs
 -- Occupied --
-19.2218 -10.2338 -10.2334 -10.1941 -10.1911 -10.1902 -10.1895 -10.1785
-10.1778  -1.1247  -0.8345  -0.7877  -0.7445  -0.7364  -0.6321  -0.6041
 -0.5725  -0.5429  -0.5098  -0.4666  -0.4608  -0.4493  -0.4390  -0.4199
 -0.4121  -0.3683  -0.3607  -0.3504  -0.3228  -0.2916  -0.2287  -0.2137
 -- Virtual --
 -0.0124  -0.0082   0.0575   0.1116   0.1168   0.1260   0.1365   0.1496
  0.1623   0.1701   0.1797   0.2111   0.2157   0.2471   0.3094   0.3300
  0.3333   0.3500   0.3683   0.4142   0.4550   0.4958   0.5182   0.5196
  0.5395   0.5520   0.5777   0.5938   0.5980   0.6048   0.6148   0.6217
  0.6445   0.6749   0.6832   0.6896   0.7010   0.7187   0.7753   0.8009
  0.8332   0.8590   0.8656   0.8741   0.8902   0.9247   0.9433   0.9570
  0.9710   0.9738   0.9817   1.0099   1.0291   1.0391   1.0623   1.1068
  1.1470   1.1665   1.2284   1.2532   1.2681   1.3597   1.3696   1.3834
  1.4338   1.4598   1.4753   1.4808   1.5243   1.5432   1.5826   1.6341
  1.6829   1.6863   1.7047   1.8148   1.8532   1.9172   1.9242   1.9462
  1.9932   2.0006   2.0328   2.0857   2.1430   2.1527   2.1846   2.2018
  2.2126   2.2551   2.2737   2.3042   2.3307   2.3865   2.3940   2.4302
  2.4938   2.5453   2.5847   2.6520   2.6716   2.7001   2.7325   2.7600
  2.7885   2.9175   2.9862   3.0574   3.2229   3.2439   3.9798   4.1113
  4.1193   4.1602   4.1944   4.2788   4.2918   4.4275   4.6935
 --------------------------------------------------------------
 
          Ground-State Mulliken Net Atomic Charges

     Atom                 Charge (a.u.)
  ----------------------------------------
      1 C                    -0.355392
      2 C                    -0.111995
      3 C                     0.056028
      4 C                     0.017422
      5 O                    -0.380680
      6 C                     0.020221
      7 C                     0.053427
      8 C                    -0.112527
      9 C                    -0.351514
     10 H                     0.142361
     11 H                     0.153111
     12 H                     0.131554
     13 H                     0.156842
     14 H                     0.157685
     15 H                     0.142835
     16 H                     0.138415
     17 H                     0.142205
  ----------------------------------------
  Sum of atomic charges =     0.000000

 -----------------------------------------------------------------
                    Cartesian Multipole Moments
 -----------------------------------------------------------------
    Charge (ESU x 10^10)
                 0.0000
    Dipole Moment (Debye)
         X      -0.1977      Y      -0.2309      Z      -0.1107
       Tot       0.3235
    Quadrupole Moments (Debye-Ang)
        XX     -45.9781     XY      -0.1002     YY     -50.8116
        XZ       1.2228     YZ       0.4743     ZZ     -55.3464
    Octopole Moments (Debye-Ang^2)
       XXX      -3.7969    XXY       8.3174    XYY      -0.4206
       YYY      -1.3518    XXZ       0.4614    XYZ       0.8275
       YYZ       0.0268    XZZ       0.1356    YZZ       4.2911
       ZZZ       0.3707
    Hexadecapole Moments (Debye-Ang^3)
      XXXX    -752.2680   XXXY      -6.5277   XXYY    -217.8395
      XYYY       2.4319   YYYY    -713.9575   XXXZ      16.5725
      XXYZ       5.3278   XYYZ      -4.3343   YYYZ      -0.8451
      XXZZ    -157.0250   XYZZ      -1.1781   YYZZ    -136.4511
      XZZZ       1.6363   YZZZ       2.3088   ZZZZ     -71.3208
 -----------------------------------------------------------------
Archival summary:
1\1\nia2015.scinet.local\SP\ProcedureUnspecified\6-31G*\188\rhickman\TueFeb813:43:092022TueFeb813:43:092022\0\\#,ProcedureUnspecified,6-31G*,\\0,1\O\C,1,1.34209\H,2,1.07238,1,117.456\C,1,1.34224,2,106.949,3,179.266,0\H,4,1.07181,1,117.25,2,178.117,0\C,2,1.3686,1,111.288,3,-178.858,0\C,4,1.36873,1,111.322,2,-0.149044,0\C,7,1.44952,4,127.256,1,176.14,0\H,8,1.08204,7,115.205,4,-151.952,0\C,8,1.32631,7,124.528,4,27.3445,0\H,10,1.07635,8,121.658,7,-178.673,0\H,10,1.07678,8,121.815,7,1.99881,0\C,6,1.44969,2,125.408,1,177.94,0\H,13,1.08316,6,114.621,2,26.1452,0\C,13,1.32656,6,125.365,2,-151.658,0\H,15,1.07645,13,122.157,6,0.795767,0\H,15,1.0767,13,121.383,6,179.401,0\\\@

 Total job time:  14.67s(wall), 14.61s(cpu) 
 Tue Feb  8 13:43:09 2022

        *************************************************************
        *                                                           *
        *  Thank you very much for using Q-Chem.  Have a nice day.  *
        *                                                           *
        *************************************************************


