
Running Job 1 of 1 fragments/A017/conf-1/spe_input.inp
qchem fragments/A017/conf-1/spe_input.inp_318990.0 /gpfs/fs0/scratch/a/aspuru/rhickman/descriptor_computation/qchem318990/ 0
/scinet/niagara/software/commercial/qc52/exe/qcprog.exe_s fragments/A017/conf-1/spe_input.inp_318990.0 /gpfs/fs0/scratch/a/aspuru/rhickman/descriptor_computation/qchem318990/
                  Welcome to Q-Chem
     A Quantum Leap Into The Future Of Chemistry


 Q-Chem 5.2, Q-Chem, Inc., Pleasanton, CA (2019)

 License issued to: SRG Alan Aspuru-Guzik, University of Toronto

 Yihan Shao,  Zhengting Gan,  E. Epifanovsky,  A. T. B. Gilbert,  M. Wormit,  
 J. Kussmann,  A. W. Lange,  A. Behn,  Jia Deng,  Xintian Feng,  D. Ghosh,  
 M. Goldey,  P. R. Horn,  L. D. Jacobson,  I. Kaliman,  T. Kus,  A. Landau,  
 Jie Liu,  E. I. Proynov,  R. M. Richard,  R. P. Steele,  E. J. Sundstrom,  
 H. L. Woodcock III,  P. M. Zimmerman,  D. Zuev,  B. Albrecht,  E. Alguire,  
 S. A. Baeppler,  D. Barton,  Z. Benda,  Y. A. Bernard,  E. J. Berquist,  
 K. B. Bravaya,  H. Burton,  D. Casanova,  Chun-Min Chang,  Yunqing Chen,  
 A. Chien,  K. D. Closser,  M. P. Coons,  S. Coriani,  S. Dasgupta,  
 A. L. Dempwolff,  M. Diedenhofen,  Hainam Do,  R. G. Edgar,  Po-Tung Fang,  
 S. Faraji,  S. Fatehi,  Qingguo Feng,  K. D. Fenk,  J. Fosso-Tande,  
 J. Gayvert,  Qinghui Ge,  A. Ghysels,  G. Gidofalvi,  J. Gomes,  
 J. Gonthier,  A. Gunina,  D. Hait,  M. W. D. Hanson-Heine,  
 P. H. P. Harbach,  A. W. Hauser,  M. F. Herbst,  J. E. Herr,  
 E. G. Hohenstein,  Z. C. Holden,  Kerwin Hui,  B. C. Huynh,  T.-C. Jagau,  
 Hyunjun Ji,  B. Kaduk,  K. Khistyaev,  Jaehoon Kim,  P. Klunzinger,  K. Koh,  
 D. Kosenkov,  L. Koulias,  T. Kowalczyk,  C. M. Krauter,  A. Kunitsa,  
 Ka Un Lao,  A. Laurent,  K. V. Lawler,  Joonho Lee,  D. Lefrancois,  
 S. Lehtola,  D. S. Levine,  Yi-Pei Li,  You-Sheng Lin,  Fenglai Liu,  
 E. Livshits,  A. Luenser,  P. Manohar,  E. Mansoor,  S. F. Manzer,  
 Shan-Ping Mao,  Yuezhi Mao,  N. Mardirossian,  A. V. Marenich,  
 T. Markovich,  L. A. Martinez-Martinez,  S. A. Maurer,  N. J. Mayhall,  
 S. C. McKenzie,  J.-M. Mewes,  P. Morgante,  A. F. Morrison,  
 J. W. Mullinax,  K. Nanda,  T. S. Nguyen-Beck,  R. Olivares-Amaya,  
 J. A. Parkhill,  Zheng Pei,  T. M. Perrine,  F. Plasser,  P. Pokhilko,  
 S. Prager,  A. Prociuk,  E. Ramos,  D. R. Rehn,  F. Rob,  M. Scheurer,  
 M. Schneider,  N. Sergueev,  S. M. Sharada,  S. Sharma,  D. W. Small,  
 T. Stauch,  T. Stein,  Yu-Chuan Su,  A. J. W. Thom,  A. Tkatchenko,  
 T. Tsuchimochi,  N. M. Tubman,  L. Vogt,  M. L. Vidal,  O. Vydrov,  
 M. A. Watson,  J. Wenzel,  M. de Wergifosse,  T. A. Wesolowski,  A. White,  
 J. Witte,  A. Yamada,  Jun Yang,  K. Yao,  S. Yeganeh,  S. R. Yost,  
 Zhi-Qiang You,  A. Zech,  Igor Ying Zhang,  Xing Zhang,  Yan Zhao,  
 Ying Zhu,  B. R. Brooks,  G. K. L. Chan,  C. J. Cramer,  M. S. Gordon,  
 W. J. Hehre,  A. Klamt,  M. W. Schmidt,  C. D. Sherrill,  D. G. Truhlar,  
 A. Aspuru-Guzik,  R. Baer,  A. T. Bell,  N. A. Besley,  Jeng-Da Chai,  
 A. E. DePrince, III,  R. A. DiStasio Jr.,  A. Dreuw,  B. D. Dunietz,  
 T. R. Furlani,  Chao-Ping Hsu,  Yousung Jung,  Jing Kong,  D. S. Lambrecht,  
 WanZhen Liang,  C. Ochsenfeld,  V. A. Rassolov,  L. V. Slipchenko,  
 J. E. Subotnik,  T. Van Voorhis,  J. M. Herbert,  A. I. Krylov,  
 P. M. W. Gill,  M. Head-Gordon

 Contributors to earlier versions of Q-Chem not listed above: 
 R. D. Adamson,  B. Austin,  J. Baker,  G. J. O. Beran,  K. Brandhorst,  
 S. T. Brown,  E. F. C. Byrd,  A. K. Chakraborty,  C.-L. Cheng,  
 Siu Hung Chien,  D. M. Chipman,  D. L. Crittenden,  H. Dachsel,  
 R. J. Doerksen,  A. D. Dutoi,  L. Fusti-Molnar,  W. A. Goddard III,  
 A. Golubeva-Zadorozhnaya,  S. R. Gwaltney,  G. Hawkins,  A. Heyden,  
 S. Hirata,  G. Kedziora,  F. J. Keil,  C. Kelley,  Jihan Kim,  R. A. King,  
 R. Z. Khaliullin,  P. P. Korambath,  W. Kurlancheek,  A. M. Lee,  M. S. Lee,  
 S. V. Levchenko,  Ching Yeh Lin,  D. Liotard,  R. C. Lochan,  I. Lotan,  
 P. E. Maslen,  N. Nair,  D. P. O'Neill,  D. Neuhauser,  E. Neuscamman,  
 C. M. Oana,  R. Olson,  B. Peters,  R. Peverati,  P. A. Pieniazek,  
 Y. M. Rhee,  J. Ritchie,  M. A. Rohrdanz,  E. Rosta,  N. J. Russ,  
 H. F. Schaefer III,  N. E. Schultz,  N. Shenvi,  A. C. Simmonett,  A. Sodt,  
 D. Stuck,  K. S. Thanthiriwatte,  V. Vanovschi,  Tao Wang,  A. Warshel,  
 C. F. Williams,  Q. Wu,  X. Xu,  W. Zhang

 Please cite Q-Chem as follows:
 Y. Shao et al., Mol. Phys. 113, 184-215 (2015)
 DOI: 10.1080/00268976.2014.952696

 Q-Chem 5.2.1 for Intel X86 EM64T Linux

 Parts of Q-Chem use Armadillo 8.300.2 (Tropical Shenanigans).
 http://arma.sourceforge.net/

 Q-Chem begins on Tue Feb  8 14:21:14 2022  

Host: 
0

     Scratch files written to /gpfs/fs0/scratch/a/aspuru/rhickman/descriptor_computation/qchem318990//
 Jul1719 |scratch|qcdevops|jenkins|workspace|build_RNUM -1
Processing $rem in /scinet/niagara/software/commercial/qc52/config/preferences:
	 MEM_TOTAL  4000 
NAlpha2: 100
NElect   100
Mult     1

Checking the input file for inconsistencies... 	...done.

--------------------------------------------------------------
User input:
--------------------------------------------------------------
$molecule
0 1
C        -4.24348884890000    1.25471697170000   -0.00431526800000
N        -3.19009278880000    0.28129056360000   -0.00072708940000
C        -3.34746009180000   -1.07744548130000    0.00300273580000
C        -2.13667165330000   -1.69884851750000    0.00528260770000
C        -1.85495117580000    0.55745810800000   -0.00092656100000
C        -1.15013687690000   -0.67387005120000    0.00269585740000
C         0.24071704600000   -0.67999404000000    0.00275833960000
C         0.91913063760000    0.53129706050000   -0.00067024690000
C         2.36979957340000    0.62905516490000   -0.00151586630000
C         3.26726233920000   -0.34505962720000    0.00014266100000
F         3.05934205930000   -1.65870202460000    0.00334648980000
F         4.58456165100000   -0.12122614370000   -0.00119226690000
C         0.19416099840000    1.74182428070000   -0.00378081930000
C        -1.17956909410000    1.77358652150000   -0.00397551500000
H        -5.20567692630000    0.74577663860000   -0.00618504130000
H        -4.17841103440000    1.88920008420000   -0.89210935920000
H        -4.18291514620000    1.89120747990000    0.88239162670000
H        -4.33187403930000   -1.50670974710000    0.00375844610000
H        -1.95784489250000   -2.75509763850000    0.00831771340000
H         0.76799107500000   -1.61941565650000    0.00544717690000
H         2.78562011770000    1.62664389480000   -0.00403633880000
H         0.74312933790000    2.67198441570000   -0.00614536040000
H        -1.71221667900000    2.71277541450000   -0.00642392330000
$end

$rem
BASIS = 6-31G*
GUI = 2
METHOD = B3LYP
PRINT_ORBITALS false
MOLDEN_FORMAT false
--------------------------------------------------------------
 ----------------------------------------------------------------
             Standard Nuclear Orientation (Angstroms)
    I     Atom           X                Y                Z
 ----------------------------------------------------------------
    1      C       4.2156629031    -0.8288628901    -0.0014940525
    2      N       3.0761819246     0.0422265788    -0.0003350993
    3      C       3.1063141782     1.4097184582    -0.0001721014
    4      C       1.8429120494     1.9156532514     0.0006152587
    5      C       1.7725657832    -0.3570930811     0.0003313423
    6      C       0.9561307782     0.8032426479     0.0008130470
    7      C      -0.4292477165     0.6797982079     0.0010099605
    8      C      -0.9918941817    -0.5894187970     0.0008193449
    9      C      -2.4271521486    -0.8218668643     0.0003860287
   10      C      -3.4114415026     0.0644263374    -0.0004033265
   11      F      -3.3267759964     1.3917277895    -0.0006539806
   12      F      -4.7021670568    -0.2811280892    -0.0010109936
   13      C      -0.1573288838    -1.7271655031     0.0007929606
   14      C       1.2133881385    -1.6308430140     0.0005326678
   15      H       5.1262668740    -0.2325247728    -0.0047975297
   16      H       4.2100831335    -1.4689653706    -0.8876204380
   17      H       4.2145139318    -1.4659107946     0.8868792389
   18      H       4.0464679518     1.9288040580    -0.0006443485
   19      H       1.5664848606     2.9506597007     0.0009101698
   20      H      -1.0417263569     1.5660306464     0.0013015116
   21      H      -2.7482510345    -1.8538512829     0.0005168101
   22      H      -0.6172770054    -2.7044154279     0.0009179117
   23      H       1.8311952687    -2.5163426291     0.0004803558
 ----------------------------------------------------------------
 Molecular Point Group                 C1    NOp =  1
 Largest Abelian Subgroup              C1    NOp =  1
 Nuclear Repulsion Energy =         829.49273054 hartrees
 There are       50 alpha and       50 beta electrons
 Requested basis set is 6-31G(d)
 There are 74 shells and 228 basis functions

 Total QAlloc Memory Limit   4000 MB
 Mega-Array Size       188 MB
 MEM_STATIC part       192 MB
 A cutoff of  1.0D-08 yielded   1821 shell pairs
 There are     18470 function pairs
 Smallest overlap matrix eigenvalue = 3.33E-04

 Scale SEOQF with 1.000000e-01/1.000000e-01/1.000000e+00

 Standard Electronic Orientation quadrupole field applied
 Nucleus-field energy     =     0.0000000365 hartrees
 Guess from superposition of atomic densities
 Warning:  Energy on first SCF cycle will be non-variational
 SAD guess density has 100.000000 electrons

 -----------------------------------------------------------------------
  General SCF calculation program by
  Eric Jon Sundstrom, Paul Horn, Yuezhi Mao, Dmitri Zuev, Alec White,
  David Stuck, Shaama M.S., Shane Yost, Joonho Lee, David Small,
  Daniel Levine, Susi Lehtola, Hugh Burton, Evgeny Epifanovsky,
  Bang C. Huynh
 -----------------------------------------------------------------------
 Exchange:     0.2000 Hartree-Fock + 0.0800 Slater + 0.7200 B88
 Correlation:  0.1900 VWN1RPA + 0.8100 LYP
 Using SG-1 standard quadrature grid
 A restricted SCF calculation will be
 performed using DIIS
 SCF converges when DIIS error is below 1.0e-05
 ---------------------------------------
  Cycle       Energy         DIIS error
 ---------------------------------------
    1    -682.5068466450      5.47e-02  
    2    -678.7655271054      5.79e-03  
    3    -678.5412981557      8.15e-03  
    4    -678.9761870092      1.69e-03  
    5    -678.9938033463      5.27e-04  
    6    -678.9951681093      2.89e-04  
    7    -678.9957399410      5.17e-05  
    8    -678.9957538076      2.08e-05  
    9    -678.9957565631      5.80e-06  Convergence criterion met
 ---------------------------------------
 SCF time:   CPU 33.60s  wall 33.00s 
 SCF   energy in the final basis set =     -678.9957565631
 Total energy in the final basis set =     -678.9957565631
 
 --------------------------------------------------------------
 
                    Orbital Energies (a.u.)
 --------------------------------------------------------------
 
 Alpha MOs
 -- Occupied --
-24.7320 -24.7210 -14.3817 -10.3415 -10.2347 -10.2128 -10.2086 -10.1908
-10.1899 -10.1844 -10.1794 -10.1767 -10.1758 -10.1668  -1.2716  -1.2110
 -0.9959  -0.8526  -0.8086  -0.7869  -0.7396  -0.7208  -0.6913  -0.6384
 -0.6125  -0.5853  -0.5715  -0.5575  -0.5251  -0.5120  -0.5058  -0.4885
 -0.4740  -0.4498  -0.4432  -0.4359  -0.4286  -0.4251  -0.4142  -0.3998
 -0.3982  -0.3943  -0.3868  -0.3606  -0.3429  -0.3310  -0.2792  -0.2652
 -0.2047  -0.1939
 -- Virtual --
 -0.0137   0.0061   0.0749   0.0859   0.0919   0.0989   0.1146   0.1416
  0.1495   0.1538   0.1591   0.1621   0.1740   0.1827   0.1933   0.2023
  0.2150   0.2559   0.2633   0.2843   0.3248   0.3346   0.3632   0.3761
  0.4263   0.4302   0.4642   0.4783   0.4941   0.5106   0.5146   0.5352
  0.5398   0.5487   0.5543   0.5570   0.5706   0.5721   0.5875   0.6004
  0.6042   0.6059   0.6207   0.6314   0.6435   0.6574   0.6746   0.6899
  0.7150   0.7392   0.7504   0.7641   0.7878   0.8116   0.8159   0.8320
  0.8382   0.8420   0.8499   0.8535   0.8775   0.8946   0.9122   0.9209
  0.9308   0.9564   0.9750   0.9896   1.0048   1.0256   1.0558   1.0703
  1.1047   1.1327   1.1631   1.1715   1.1752   1.2207   1.2245   1.2382
  1.2506   1.2866   1.3089   1.3184   1.3360   1.3366   1.3570   1.3779
  1.3960   1.4163   1.4313   1.4480   1.4650   1.4754   1.4776   1.4992
  1.5125   1.5197   1.5762   1.6119   1.6463   1.6834   1.7469   1.7834
  1.7935   1.8110   1.8310   1.8424   1.8502   1.8664   1.8772   1.8924
  1.9058   1.9231   1.9679   1.9714   1.9789   1.9934   2.0001   2.0122
  2.0285   2.0361   2.0578   2.0588   2.0946   2.1232   2.1558   2.1761
  2.2044   2.2087   2.2151   2.2573   2.2576   2.2727   2.2836   2.3151
  2.3430   2.3592   2.4019   2.4117   2.4375   2.4993   2.5251   2.5354
  2.5593   2.5968   2.6455   2.6673   2.6986   2.7179   2.7479   2.7681
  2.7957   2.8524   2.8719   2.9378   2.9650   2.9772   3.0774   3.1295
  3.1791   3.2535   3.3521   3.5028   4.0414   4.0926   4.1180   4.1332
  4.1767   4.1864   4.2823   4.3100   4.4079   4.4967   4.5334   4.7647
  4.8497   5.2899
 --------------------------------------------------------------
 
          Ground-State Mulliken Net Atomic Charges

     Atom                 Charge (a.u.)
  ----------------------------------------
      1 C                    -0.324962
      2 N                    -0.485219
      3 C                     0.035055
      4 C                    -0.238063
      5 C                     0.309168
      6 C                     0.120531
      7 C                    -0.282225
      8 C                     0.192640
      9 C                    -0.301658
     10 C                     0.536333
     11 F                    -0.239894
     12 F                    -0.256853
     13 C                    -0.217990
     14 C                    -0.165452
     15 H                     0.170211
     16 H                     0.172308
     17 H                     0.172288
     18 H                     0.145193
     19 H                     0.127624
     20 H                     0.135306
     21 H                     0.152988
     22 H                     0.119968
     23 H                     0.122704
  ----------------------------------------
  Sum of atomic charges =     0.000000

 -----------------------------------------------------------------
                    Cartesian Multipole Moments
 -----------------------------------------------------------------
    Charge (ESU x 10^10)
                 0.0000
    Dipole Moment (Debye)
         X       3.8082      Y      -1.1137      Z      -0.0017
       Tot       3.9677
    Quadrupole Moments (Debye-Ang)
        XX     -67.6311     XY      -0.2835     YY     -72.5390
        XZ      -0.0121     YZ       0.0015     ZZ     -81.8067
    Octopole Moments (Debye-Ang^2)
       XXX      55.9818    XXY      -6.3705    XYY     -11.6190
       YYY       5.4806    XXZ      -0.0397    XYZ      -0.0002
       YYZ      -0.0034    XZZ     -22.1016    YZZ       2.3622
       ZZZ      -0.0243
    Hexadecapole Moments (Debye-Ang^3)
      XXXX   -3215.9207   XXXY     -26.1111   XXYY    -649.8132
      XYYY     -14.1292   YYYY    -672.1266   XXXZ      -0.2181
      XXYZ      -0.0173   XYYZ      -0.0069   YYYZ       0.0079
      XXZZ    -588.0293   XYZZ     -20.9216   YYZZ    -144.7846
      XZZZ       0.0633   YZZZ      -0.0030   ZZZZ     -85.3345
 -----------------------------------------------------------------
Archival summary:
1\1\nia2015.scinet.local\SP\ProcedureUnspecified\6-31G*\21119\rhickman\TueFeb814:21:482022TueFeb814:21:482022\0\\#,ProcedureUnspecified,6-31G*,\\0,1\N\C,1,1.3634\C,1,1.36782,2,108.293\H,3,1.07394,1,120.167,2,-179.999,0\C,3,1.36094,1,110.562,2,0.00108785,0\H,5,1.07128,3,126.777,1,180,0\C,2,1.39109,1,130.732,3,-179.997,0\H,7,1.07972,2,121.395,1,0.0215061,0\C,7,1.3741,2,117.721,1,-179.978,0\H,9,1.08008,7,119.224,2,179.998,0\C,9,1.41102,7,122.241,2,0.00191501,0\C,11,1.38834,9,119.831,7,-0.0206101,0\H,12,1.07728,11,121.444,9,-179.983,0\C,12,1.39087,11,119,9,0.0169109,0\C,1,1.4343,2,125.573,3,-179.98,0\H,15,1.0885,1,109.383,2,179.833,0\H,15,1.09315,1,110.623,2,59.9774,0\H,15,1.09318,1,110.636,2,-60.3033,0\C,11,1.45396,9,117.061,7,179.968,0\H,19,1.08079,11,116.483,9,0.0261797,0\C,19,1.32452,11,128.799,9,-179.96,0\F,21,1.33,19,128.351,11,-0.0187905,0\F,21,1.33618,19,123.011,11,179.986,0\\\@

 Total job time:  33.90s(wall), 33.78s(cpu) 
 Tue Feb  8 14:21:48 2022

        *************************************************************
        *                                                           *
        *  Thank you very much for using Q-Chem.  Have a nice day.  *
        *                                                           *
        *************************************************************


