
Running Job 1 of 1 tidas/B050/conf-1/spe_input.inp
qchem tidas/B050/conf-1/spe_input.inp_239627.0 /home/a/aspuru/seifridm/acdc_laser/descriptor_computation/qchem239627/ 0
/gpfs/fs1/scinet/niagara/software/commercial/qc54/exe/qcprog.exe_s tidas/B050/conf-1/spe_input.inp_239627.0 /home/a/aspuru/seifridm/acdc_laser/descriptor_computation/qchem239627/
                  Welcome to Q-Chem
     A Quantum Leap Into The Future Of Chemistry


 Q-Chem 5.4, Q-Chem, Inc., Pleasanton, CA (2021)

 License issued to: SRG Alan Aspuru-Guzik, University of Toronto

 E. Epifanovsky,  A. T. B. Gilbert,  Xintian Feng,  Joonho Lee,  Yuezhi Mao,  
 N. Mardirossian,  P. Pokhilko,  A. White,  M. Wormit,  M. P. Coons,  
 A. L. Dempwolff,  Zhengting Gan,  D. Hait,  P. R. Horn,  L. D. Jacobson,  
 I. Kaliman,  J. Kussmann,  A. W. Lange,  Ka Un Lao,  D. S. Levine,  Jie Liu,  
 S. C. McKenzie,  A. F. Morrison,  K. Nanda,  F. Plasser,  D. R. Rehn,  
 M. L. Vidal,  Zhi-Qiang You,  Ying Zhu,  B. Alam,  B. Albrecht,  
 A. Aldossary,  E. Alguire,  J. H. Andersen,  D. Barton,  K. Begam,  A. Behn,  
 Y. A. Bernard,  E. J. Berquist,  H. Burton,  A. Carreras,  K. Carter-Fenk,  
 Romit Chakraborty,  A. D. Chien,  K. D. Closser,  V. Cofer-Shabica,  
 S. Dasgupta,  Jia Deng,  M. de Wergifosse,  M. Diedenhofen,  Hainam Do,  
 S. Ehlert,  Po-Tung Fang,  S. Fatehi,  Qingguo Feng,  T. Friedhoff,  
 J. Gayvert,  Qinghui Ge,  G. Gidofalvi,  M. Goldey,  J. Gomes,  
 C. Gonzalez-Espinoza,  S. Gulania,  A. Gunina,  M. W. D. Hanson-Heine,  
 P. H. P. Harbach,  A. W. Hauser,  M. F. Herbst,  M. Hernandez Vera,  
 M. Hodecker,  Z. C. Holden,  S. Houck,  Xunkun Huang,  Kerwin Hui,  
 B. C. Huynh,  M. Ivanov,  Hyunjun Ji,  Hanjie Jiang,  B. Kaduk,  S. Kaehler,  
 K. Khistyaev,  Jaehoon Kim,  P. Klunzinger,  Z. Koczor-Benda,  
 Joong Hoon Koh,  D. Kosenkov,  L. Koulias,  T. Kowalczyk,  C. M. Krauter,  
 K. Kue,  A. Kunitsa,  T. Kus,  A. Landau,  K. V. Lawler,  D. Lefrancois,  
 S. Lehtola,  Rain Li,  Yi-Pei Li,  Jiashu Liang,  M. Liebenthal,  
 Hung-Hsuan Lin,  You-Sheng Lin,  Fenglai Liu,  Kuan-Yu Liu,  
 M. Loipersberger,  A. Luenser,  A. Manjanath,  P. Manohar,  E. Mansoor,  
 S. F. Manzer,  Shan-Ping Mao,  A. V. Marenich,  T. Markovich,  S. Mason,  
 S. A. Maurer,  P. F. McLaughlin,  M. F. S. J. Menger,  J.-M. Mewes,  
 S. A. Mewes,  P. Morgante,  J. W. Mullinax,  K. J. Oosterbaan,  G. Paran,  
 Alexander C. Paul,  Suranjan K. Paul,  F. Pavosevic,  Zheng Pei,  S. Prager,  
 E. I. Proynov,  E. Ramos,  B. Rana,  A. E. Rask,  A. Rettig,  R. M. Richard,  
 F. Rob,  E. Rossomme,  T. Scheele,  M. Scheurer,  M. Schneider,  
 N. Sergueev,  S. M. Sharada,  W. Skomorowski,  D. W. Small,  C. J. Stein,  
 Yu-Chuan Su,  E. J. Sundstrom,  Zhen Tao,  J. Thirman,  T. Tsuchimochi,  
 N. M. Tubman,  S. P. Veccham,  O. Vydrov,  J. Wenzel,  J. Witte,  A. Yamada,  
 Kun Yao,  S. Yeganeh,  S. R. Yost,  A. Zech,  Igor Ying Zhang,  Xing Zhang,  
 Yu Zhang,  D. Zuev,  A. Aspuru-Guzik,  A. T. Bell,  N. A. Besley,  
 K. B. Bravaya,  B. R. Brooks,  D. Casanova,  Jeng-Da Chai,  S. Coriani,  
 C. J. Cramer,  A. E. DePrince, III,  R. A. DiStasio Jr.,  A. Dreuw,  
 B. D. Dunietz,  T. R. Furlani,  W. A. Goddard III,  S. Grimme,  
 S. Hammes-Schiffer,  T. Head-Gordon,  W. J. Hehre,  Chao-Ping Hsu,  
 T.-C. Jagau,  Yousung Jung,  A. Klamt,  Jing Kong,  D. S. Lambrecht,  
 WanZhen Liang,  N. J. Mayhall,  C. W. McCurdy,  J. B. Neaton,  T. Neudecker,  
 C. Ochsenfeld,  J. A. Parkhill,  R. Peverati,  V. A. Rassolov,  Yihan Shao,  
 L. V. Slipchenko,  R. P. Steele,  J. E. Subotnik,  A. J. W. Thom,  
 A. Tkatchenko,  D. G. Truhlar,  T. Van Voorhis,  T. A. Wesolowski,  
 K. B. Whaley,  H. L. Woodcock III,  P. M. Zimmerman,  S. Faraji,  
 P. M. W. Gill,  M. Head-Gordon,  J. M. Herbert,  A. I. Krylov

 Additional authors since Version 5.4.0: 
 Chandrima Chakravarty,  L. Cunha,  R. Kang,  Yongbin Kim,  S. Kotaru,  
 Shaozhi Li,  Xiangyuan Li,  F. Matz,  A. Molle,  V. Parravicini,  
 Haisheng Ren,  Hengyuan Shen,  Yingli Su,  Hung-Yi Tsai,  C. Utku,  
 Fang Wang,  Jeff Yang,  F. Zeller

 Contributors to earlier versions of Q-Chem not listed above: 
 R. D. Adamson,  B. Austin,  R. Baer,  J. Baker,  G. J. O. Beran,  
 K. Brandhorst,  S. T. Brown,  E. F. C. Byrd,  Arup K. Chakraborty,  
 G. K. L. Chan,  Chun-Min Chang,  Yunqing Chen,  C.-L. Cheng,  
 Siu Hung Chien,  D. M. Chipman,  D. L. Crittenden,  H. Dachsel,  
 R. J. Doerksen,  A. D. Dutoi,  R. G. Edgar,  J. Fosso-Tande,  
 L. Fusti-Molnar,  D. Ghosh,  A. Ghysels,  A. Golubeva-Zadorozhnaya,  
 J. Gonthier,  M. S. Gordon,  S. R. Gwaltney,  G. Hawkins,  J. E. Herr,  
 A. Heyden,  S. Hirata,  E. G. Hohenstein,  G. Kedziora,  F. J. Keil,  
 C. Kelley,  Jihan Kim,  R. A. King,  R. Z. Khaliullin,  P. P. Korambath,  
 W. Kurlancheek,  A. Laurent,  A. M. Lee,  M. S. Lee,  S. V. Levchenko,  
 Ching Yeh Lin,  D. Liotard,  E. Livshits,  R. C. Lochan,  I. Lotan,  
 L. A. Martinez-Martinez,  P. E. Maslen,  N. Nair,  D. P. O'Neill,  
 D. Neuhauser,  E. Neuscamman,  C. M. Oana,  R. Olivares-Amaya,  R. Olson,  
 T. M. Perrine,  B. Peters,  P. A. Pieniazek,  A. Prociuk,  Y. M. Rhee,  
 J. Ritchie,  M. A. Rohrdanz,  E. Rosta,  N. J. Russ,  H. F. Schaefer III,  
 M. W. Schmidt,  N. E. Schultz,  S. Sharma,  N. Shenvi,  C. D. Sherrill,  
 A. C. Simmonett,  A. Sodt,  T. Stein,  D. Stuck,  K. S. Thanthiriwatte,  
 V. Vanovschi,  L. Vogt,  Tao Wang,  A. Warshel,  M. A. Watson,  
 C. F. Williams,  Q. Wu,  X. Xu,  Jun Yang,  W. Zhang,  Yan Zhao

   Please cite Q-Chem as follows:
  "Software for the frontiers of quantum chemistry:
   An overview of developments in the Q-Chem 5 package"
   J. Chem. Phys. 155, 084801 (2021)
   https://doi.org/10.1063/5.0055522 (open access)

 Q-Chem 5.4.2 for Intel X86 EM64T Linux

 Parts of Q-Chem use Armadillo 9.900.5 (Nocturnal Misbehaviour).
 http://arma.sourceforge.net/

 Q-Chem begins on Fri Aug 12 12:43:22 2022  

 Host: 
0

     Scratch files written to /home/a/aspuru/seifridm/acdc_laser/descriptor_computation/qchem239627//
 Dec1321 |scratch|qcdevops|jenkins|workspace|build_RNUM 6959   
 Processing $rem in /gpfs/fs1/scinet/niagara/software/commercial/qc54/config/preferences:
 Processing $rem in /home/a/aspuru/seifridm/.qchemrc:

 Checking the input file for inconsistencies... 	...done.

--------------------------------------------------------------
User input:
--------------------------------------------------------------
$molecule
0 1
C           -2.01466182410000        3.94570832650000       -0.00717071720000
C           -0.80382859900000        3.41674736270000        0.11888445330000
C           -0.46701438660000        1.99656524690000        0.10863401460000
C           -1.43283638690000        0.99367064860000        0.03867979430000
C           -1.07998634440000       -0.35465557810000        0.02867597200000
C           -2.05543562800000       -1.43336837170000       -0.04436015170000
C           -3.37481587780000       -1.35108335980000       -0.12748308010000
F           -4.12721149980000       -0.25801875590000       -0.16452666820000
F           -4.16672116120000       -2.41895776790000       -0.18961303840000
C            0.26950761240000       -0.70359168260000        0.09277229280000
C            1.24252013720000        0.28409402650000        0.16569135770000
C            2.69003480950000       -0.04488242170000        0.23726819880000
O            3.56622003310000        0.78357091060000        0.28612915350000
O            2.91200721210000       -1.36519679610000        0.25369639770000
C            4.27401655000000       -1.78903652220000        0.30805627150000
C            4.91200419460000       -1.79402031010000       -1.07375673260000
C            0.87441514960000        1.62427578760000        0.17348712520000
H           -2.16022029400000        5.01202875910000        0.01077809170000
H           -2.90429003050000        3.35334679840000       -0.13544093420000
H            0.04818288470000        4.07428444210000        0.23705728380000
H           -2.47136857770000        1.27277429050000       -0.00432314820000
H           -1.65989156380000       -2.43883685140000       -0.03109288950000
H            0.56476373680000       -1.74086746730000        0.08729200340000
H            4.24045907700000       -2.79537304870000        0.73096218390000
H            4.82663547000000       -1.12057582300000        0.97654011220000
H            4.33758093980000       -2.42029145060000       -1.75233044240000
H            5.92516708540000       -2.17945453500000       -1.00522288870000
H            4.94612331970000       -0.78198216690000       -1.46951713820000
H            1.65311778800000        2.37052646980000        0.23052758040000
$end

$rem
BASIS = 6-31G*
GUI = 2
METHOD = B3LYP
PRINT_ORBITALS false
MOLDEN_FORMAT false
$end
--------------------------------------------------------------
 ----------------------------------------------------------------
             Standard Nuclear Orientation (Angstroms)
    I     Atom           X                Y                Z
 ----------------------------------------------------------------
    1      C       2.6421368355    -3.5858569322    -0.2173675671
    2      C       1.3700117189    -3.2384328861    -0.0663678118
    3      C       0.8390859356    -1.8806252485     0.0039341013
    4      C       1.6559192042    -0.7509221944    -0.0036636202
    5      C       1.1190990461     0.5336056731     0.0626622256
    6      C       1.9349195120     1.7397792729     0.0564103542
    7      C       3.2526243669     1.8465427404    -0.0254429623
    8      F       4.1494706480     0.8726000091    -0.1222103729
    9      F       3.8882282346     3.0158704956    -0.0222515017
   10      C      -0.2655490445     0.6873731520     0.1407897514
   11      C      -1.0916056890    -0.4284646457     0.1521938178
   12      C      -2.5705222965    -0.3084803538     0.2361992463
   13      O      -3.3229051467    -1.2520554735     0.2332154519
   14      O      -2.9737473466     0.9650094222     0.3278781963
   15      C      -4.3812329233     1.1916517420     0.4005566407
   16      C      -5.0187176593     1.1878433791    -0.9814921858
   17      C      -0.5408184020    -1.7026937073     0.0842021150
   18      H       2.9345198874    -4.6208493951    -0.2603959947
   19      H       3.4403515501    -2.8692256289    -0.3072375778
   20      H       0.6180686162    -4.0136874756     0.0098246343
   21      H       2.7229969921    -0.8800748792    -0.0580859138
   22      H       1.4035464999     2.6780765643     0.1259725967
   23      H      -0.7020953957     1.6721328564     0.1939204763
   24      H      -4.4863090853     2.1667364646     0.8810329703
   25      H      -4.8331815353     0.4153721600     1.0268397117
   26      H      -4.5393503525     1.9260266170    -1.6201880361
   27      H      -6.0753554742     1.4241641029    -0.8953265532
   28      H      -4.9133072265     0.2054742762    -1.4352004656
   29      H      -1.2080581006    -2.5519317438     0.0945672086
 ----------------------------------------------------------------
 Molecular Point Group                 C1    NOp =  1
 Largest Abelian Subgroup              C1    NOp =  1
 Nuclear Repulsion Energy =        1133.40318811 hartrees
 There are       62 alpha and       62 beta electrons
 Requested basis set is 6-31G(d)
 There are 92 shells and 279 basis functions

 Total QAlloc Memory Limit   8000 MB
 Mega-Array Size       188 MB
 MEM_STATIC part       192 MB
 A cutoff of  1.0D-08 yielded   2291 shell pairs
 There are     22831 function pairs
 Smallest overlap matrix eigenvalue = 3.53E-04

 Scale SEOQF with 1.000000e-02/1.000000e-01/1.000000e-01

 Standard Electronic Orientation quadrupole field applied
 Nucleus-field energy     =     0.0000000325 hartrees
 Guess from superposition of atomic densities
 Warning:  Energy on first SCF cycle will be non-variational
 SAD guess density has 124.000000 electrons

 -----------------------------------------------------------------------
  General SCF calculation program by
  Eric Jon Sundstrom, Paul Horn, Yuezhi Mao, Dmitri Zuev, Alec White,
  David Stuck, Shaama M.S., Shane Yost, Joonho Lee, David Small,
  Daniel Levine, Susi Lehtola, Hugh Burton, Evgeny Epifanovsky,
  Bang C. Huynh
 -----------------------------------------------------------------------
 Exchange:     0.2000 Hartree-Fock + 0.0800 Slater + 0.7200 B88
 Correlation:  0.1900 VWN1RPA + 0.8100 LYP
 Using SG-1 standard quadrature grid
 A restricted SCF calculation will be
 performed using DIIS
 SCF converges when DIIS error is below 1.0e-05
 ---------------------------------------
  Cycle       Energy         DIIS error
 ---------------------------------------
    1    -856.4350608951      4.80e-02  
    2    -852.4016012106      5.83e-03  
    3    -852.0405982914      8.89e-03  
    4    -852.6822846578      1.93e-03  
    5    -852.7102537163      6.32e-04  
    6    -852.7127823048      2.57e-04  
    7    -852.7133252975      7.46e-05  
    8    -852.7133749652      2.65e-05  
    9    -852.7133826047      6.48e-06  Convergence criterion met
 ---------------------------------------
 SCF time:   CPU 79.71s  wall 88.00s 
 SCF   energy in the final basis set =     -852.7133826047
 Total energy in the final basis set =     -852.7133826047
 
 --------------------------------------------------------------
 
                    Orbital Energies (a.u.)
 --------------------------------------------------------------
 
 Alpha MOs
 -- Occupied --
-24.7503 -24.7392 -19.1924 -19.1333 -10.3626 -10.3147 -10.2438 -10.2149
-10.2083 -10.2046 -10.2041 -10.1999 -10.1975 -10.1954 -10.1946 -10.1848
-10.1808  -1.2914  -1.2301  -1.1094  -1.0181  -0.8812  -0.8211  -0.8042
 -0.7737  -0.7499  -0.7360  -0.6754  -0.6513  -0.6413  -0.6113  -0.5901
 -0.5724  -0.5519  -0.5430  -0.5246  -0.5102  -0.4961  -0.4821  -0.4734
 -0.4674  -0.4579  -0.4463  -0.4432  -0.4414  -0.4346  -0.4197  -0.4116
 -0.4090  -0.3960  -0.3833  -0.3800  -0.3740  -0.3588  -0.3507  -0.3411
 -0.3248  -0.3004  -0.2907  -0.2749  -0.2393  -0.2260
 -- Virtual --
 -0.0527  -0.0363   0.0032   0.0771   0.0845   0.0907   0.1096   0.1128
  0.1156   0.1318   0.1457   0.1490   0.1559   0.1590   0.1708   0.1806
  0.1855   0.1898   0.1916   0.2067   0.2273   0.2348   0.2673   0.2794
  0.2891   0.3067   0.3083   0.3387   0.3511   0.3892   0.4170   0.4352
  0.4503   0.4836   0.4893   0.4948   0.5121   0.5176   0.5226   0.5320
  0.5369   0.5426   0.5466   0.5560   0.5588   0.5698   0.5776   0.5794
  0.5890   0.5910   0.6127   0.6171   0.6205   0.6302   0.6380   0.6580
  0.6775   0.6834   0.6881   0.7066   0.7394   0.7621   0.7710   0.7775
  0.7909   0.8017   0.8167   0.8207   0.8233   0.8485   0.8588   0.8784
  0.8815   0.8924   0.8932   0.8984   0.9101   0.9305   0.9530   0.9565
  0.9674   0.9869   1.0027   1.0105   1.0138   1.0467   1.0498   1.0826
  1.0955   1.1078   1.1260   1.1529   1.1550   1.1683   1.1739   1.1984
  1.2110   1.2253   1.2462   1.2571   1.2761   1.2992   1.3121   1.3208
  1.3359   1.3580   1.3760   1.3894   1.3983   1.4072   1.4290   1.4463
  1.4603   1.4662   1.4753   1.4912   1.5016   1.5108   1.5389   1.5752
  1.6045   1.6564   1.6642   1.6717   1.6922   1.7153   1.7405   1.7500
  1.7754   1.7768   1.7867   1.8080   1.8171   1.8316   1.8329   1.8494
  1.8735   1.8842   1.8951   1.8975   1.9326   1.9347   1.9463   1.9632
  1.9703   1.9802   1.9887   2.0165   2.0230   2.0335   2.0435   2.0623
  2.0863   2.1146   2.1225   2.1285   2.1540   2.1599   2.1824   2.2183
  2.2274   2.2292   2.2501   2.2549   2.3033   2.3044   2.3197   2.3494
  2.3544   2.3906   2.4108   2.4623   2.4769   2.5158   2.5185   2.5203
  2.5367   2.5846   2.5912   2.6277   2.6309   2.6709   2.6788   2.6887
  2.7513   2.7565   2.8289   2.8378   2.8539   2.8827   2.9178   2.9651
  2.9954   3.0559   3.0966   3.1488   3.1627   3.2253   3.3365   3.4855
  3.9859   4.0730   4.0876   4.1089   4.1260   4.1549   4.1883   4.2327
  4.2601   4.3188   4.4353   4.4633   4.4952   4.5875   4.7434   4.8287
  5.3103
 --------------------------------------------------------------
 
          Ground-State Mulliken Net Atomic Charges

     Atom                 Charge (a.u.)
  ----------------------------------------
      1 C                    -0.353459
      2 C                    -0.109931
      3 C                     0.175439
      4 C                    -0.248381
      5 C                     0.197588
      6 C                    -0.296764
      7 C                     0.546512
      8 F                    -0.232569
      9 F                    -0.246237
     10 C                    -0.235649
     11 C                     0.050250
     12 C                     0.603836
     13 O                    -0.491289
     14 O                    -0.469611
     15 C                    -0.045863
     16 C                    -0.464602
     17 C                    -0.236485
     18 H                     0.148441
     19 H                     0.147954
     20 H                     0.134549
     21 H                     0.141535
     22 H                     0.162633
     23 H                     0.152842
     24 H                     0.151178
     25 H                     0.169285
     26 H                     0.156394
     27 H                     0.152197
     28 H                     0.179807
     29 H                     0.160401
  ----------------------------------------
  Sum of atomic charges =     0.000000

 -----------------------------------------------------------------
                    Cartesian Multipole Moments
 -----------------------------------------------------------------
    Charge (ESU x 10^10)
                -0.0000
    Dipole Moment (Debye)
         X      -0.1945      Y       1.3784      Z      -0.0734
       Tot       1.3940
    Quadrupole Moments (Debye-Ang)
        XX     -92.9325     XY     -11.2853     YY     -91.6154
        XZ      -0.2283     YZ       0.7912     ZZ     -97.8965
    Octopole Moments (Debye-Ang^2)
       XXX     -13.2759    XXY      31.5551    XYY      12.5402
       YYY      13.8243    XXZ       0.2882    XYZ      -0.9820
       YYZ      -0.0715    XZZ       5.0935    YZZ      16.3777
       ZZZ       1.4412
    Hexadecapole Moments (Debye-Ang^3)
      XXXX   -4581.4653   XXXY    -130.6358   XXYY   -1145.8735
      XYYY      36.3838   YYYY   -1894.3599   XXXZ     -25.7611
      XXYZ      17.7066   XYYZ      -8.7975   YYYZ       6.3939
      XXZZ    -818.8367   XYZZ      51.3903   YYZZ    -383.9094
      XZZZ     -13.8005   YZZZ      -3.7617   ZZZZ    -172.0672
 -----------------------------------------------------------------
 Total job time:  91.14s(wall), 80.34s(cpu) 
 Fri Aug 12 12:44:54 2022

        *************************************************************
        *                                                           *
        *  Thank you very much for using Q-Chem.  Have a nice day.  *
        *                                                           *
        *************************************************************


