
Running Job 1 of 1 fragments/C037/conf-5/spe_input.inp
qchem fragments/C037/conf-5/spe_input.inp_158253.0 /gpfs/fs0/scratch/a/aspuru/rhickman/descriptor_computation/qchem158253/ 0
/scinet/niagara/software/commercial/qc52/exe/qcprog.exe_s fragments/C037/conf-5/spe_input.inp_158253.0 /gpfs/fs0/scratch/a/aspuru/rhickman/descriptor_computation/qchem158253/
                  Welcome to Q-Chem
     A Quantum Leap Into The Future Of Chemistry


 Q-Chem 5.2, Q-Chem, Inc., Pleasanton, CA (2019)

 License issued to: SRG Alan Aspuru-Guzik, University of Toronto

 Yihan Shao,  Zhengting Gan,  E. Epifanovsky,  A. T. B. Gilbert,  M. Wormit,  
 J. Kussmann,  A. W. Lange,  A. Behn,  Jia Deng,  Xintian Feng,  D. Ghosh,  
 M. Goldey,  P. R. Horn,  L. D. Jacobson,  I. Kaliman,  T. Kus,  A. Landau,  
 Jie Liu,  E. I. Proynov,  R. M. Richard,  R. P. Steele,  E. J. Sundstrom,  
 H. L. Woodcock III,  P. M. Zimmerman,  D. Zuev,  B. Albrecht,  E. Alguire,  
 S. A. Baeppler,  D. Barton,  Z. Benda,  Y. A. Bernard,  E. J. Berquist,  
 K. B. Bravaya,  H. Burton,  D. Casanova,  Chun-Min Chang,  Yunqing Chen,  
 A. Chien,  K. D. Closser,  M. P. Coons,  S. Coriani,  S. Dasgupta,  
 A. L. Dempwolff,  M. Diedenhofen,  Hainam Do,  R. G. Edgar,  Po-Tung Fang,  
 S. Faraji,  S. Fatehi,  Qingguo Feng,  K. D. Fenk,  J. Fosso-Tande,  
 J. Gayvert,  Qinghui Ge,  A. Ghysels,  G. Gidofalvi,  J. Gomes,  
 J. Gonthier,  A. Gunina,  D. Hait,  M. W. D. Hanson-Heine,  
 P. H. P. Harbach,  A. W. Hauser,  M. F. Herbst,  J. E. Herr,  
 E. G. Hohenstein,  Z. C. Holden,  Kerwin Hui,  B. C. Huynh,  T.-C. Jagau,  
 Hyunjun Ji,  B. Kaduk,  K. Khistyaev,  Jaehoon Kim,  P. Klunzinger,  K. Koh,  
 D. Kosenkov,  L. Koulias,  T. Kowalczyk,  C. M. Krauter,  A. Kunitsa,  
 Ka Un Lao,  A. Laurent,  K. V. Lawler,  Joonho Lee,  D. Lefrancois,  
 S. Lehtola,  D. S. Levine,  Yi-Pei Li,  You-Sheng Lin,  Fenglai Liu,  
 E. Livshits,  A. Luenser,  P. Manohar,  E. Mansoor,  S. F. Manzer,  
 Shan-Ping Mao,  Yuezhi Mao,  N. Mardirossian,  A. V. Marenich,  
 T. Markovich,  L. A. Martinez-Martinez,  S. A. Maurer,  N. J. Mayhall,  
 S. C. McKenzie,  J.-M. Mewes,  P. Morgante,  A. F. Morrison,  
 J. W. Mullinax,  K. Nanda,  T. S. Nguyen-Beck,  R. Olivares-Amaya,  
 J. A. Parkhill,  Zheng Pei,  T. M. Perrine,  F. Plasser,  P. Pokhilko,  
 S. Prager,  A. Prociuk,  E. Ramos,  D. R. Rehn,  F. Rob,  M. Scheurer,  
 M. Schneider,  N. Sergueev,  S. M. Sharada,  S. Sharma,  D. W. Small,  
 T. Stauch,  T. Stein,  Yu-Chuan Su,  A. J. W. Thom,  A. Tkatchenko,  
 T. Tsuchimochi,  N. M. Tubman,  L. Vogt,  M. L. Vidal,  O. Vydrov,  
 M. A. Watson,  J. Wenzel,  M. de Wergifosse,  T. A. Wesolowski,  A. White,  
 J. Witte,  A. Yamada,  Jun Yang,  K. Yao,  S. Yeganeh,  S. R. Yost,  
 Zhi-Qiang You,  A. Zech,  Igor Ying Zhang,  Xing Zhang,  Yan Zhao,  
 Ying Zhu,  B. R. Brooks,  G. K. L. Chan,  C. J. Cramer,  M. S. Gordon,  
 W. J. Hehre,  A. Klamt,  M. W. Schmidt,  C. D. Sherrill,  D. G. Truhlar,  
 A. Aspuru-Guzik,  R. Baer,  A. T. Bell,  N. A. Besley,  Jeng-Da Chai,  
 A. E. DePrince, III,  R. A. DiStasio Jr.,  A. Dreuw,  B. D. Dunietz,  
 T. R. Furlani,  Chao-Ping Hsu,  Yousung Jung,  Jing Kong,  D. S. Lambrecht,  
 WanZhen Liang,  C. Ochsenfeld,  V. A. Rassolov,  L. V. Slipchenko,  
 J. E. Subotnik,  T. Van Voorhis,  J. M. Herbert,  A. I. Krylov,  
 P. M. W. Gill,  M. Head-Gordon

 Contributors to earlier versions of Q-Chem not listed above: 
 R. D. Adamson,  B. Austin,  J. Baker,  G. J. O. Beran,  K. Brandhorst,  
 S. T. Brown,  E. F. C. Byrd,  A. K. Chakraborty,  C.-L. Cheng,  
 Siu Hung Chien,  D. M. Chipman,  D. L. Crittenden,  H. Dachsel,  
 R. J. Doerksen,  A. D. Dutoi,  L. Fusti-Molnar,  W. A. Goddard III,  
 A. Golubeva-Zadorozhnaya,  S. R. Gwaltney,  G. Hawkins,  A. Heyden,  
 S. Hirata,  G. Kedziora,  F. J. Keil,  C. Kelley,  Jihan Kim,  R. A. King,  
 R. Z. Khaliullin,  P. P. Korambath,  W. Kurlancheek,  A. M. Lee,  M. S. Lee,  
 S. V. Levchenko,  Ching Yeh Lin,  D. Liotard,  R. C. Lochan,  I. Lotan,  
 P. E. Maslen,  N. Nair,  D. P. O'Neill,  D. Neuhauser,  E. Neuscamman,  
 C. M. Oana,  R. Olson,  B. Peters,  R. Peverati,  P. A. Pieniazek,  
 Y. M. Rhee,  J. Ritchie,  M. A. Rohrdanz,  E. Rosta,  N. J. Russ,  
 H. F. Schaefer III,  N. E. Schultz,  N. Shenvi,  A. C. Simmonett,  A. Sodt,  
 D. Stuck,  K. S. Thanthiriwatte,  V. Vanovschi,  Tao Wang,  A. Warshel,  
 C. F. Williams,  Q. Wu,  X. Xu,  W. Zhang

 Please cite Q-Chem as follows:
 Y. Shao et al., Mol. Phys. 113, 184-215 (2015)
 DOI: 10.1080/00268976.2014.952696

 Q-Chem 5.2.1 for Intel X86 EM64T Linux

 Parts of Q-Chem use Armadillo 8.300.2 (Tropical Shenanigans).
 http://arma.sourceforge.net/

 Q-Chem begins on Mon Feb  7 18:02:33 2022  

Host: 
0

     Scratch files written to /gpfs/fs0/scratch/a/aspuru/rhickman/descriptor_computation/qchem158253//
 Jul1719 |scratch|qcdevops|jenkins|workspace|build_RNUM -1
Processing $rem in /scinet/niagara/software/commercial/qc52/config/preferences:
	 MEM_TOTAL  4000 
NAlpha2: 114
NElect   114
Mult     1

Checking the input file for inconsistencies... 	...done.

--------------------------------------------------------------
User input:
--------------------------------------------------------------
$molecule
0 1
C         1.13877767890000    1.55716969750000    2.09974800710000
C         1.68565087410000    0.36669064200000    1.89386267260000
C         1.61616133420000   -0.40998821780000    0.66771243320000
C         2.65234509160000   -1.31439842230000    0.30524596030000
C         2.45681215610000   -1.90842881950000   -0.89489857820000
S         0.98597110800000   -1.40932545690000   -1.63047364770000
C         0.62031408290000   -0.36738369550000   -0.28334318890000
C        -0.62091450740000    0.36724585060000   -0.28220939280000
S        -0.98839895780000    1.41011879780000   -1.62809143300000
C        -2.45751253180000    1.90980603480000   -0.88936904650000
C        -2.65125136380000    1.31508995730000    0.31073599070000
C        -1.61506532320000    0.40973291550000    0.67060237270000
C        -1.68244930820000   -0.36783930800000    1.89632687130000
C        -1.13725077460000   -1.55955088910000    2.09926669790000
H         1.26189433710000    2.07503512090000    3.03521170270000
H         0.56169956230000    2.06258730740000    1.34519571890000
H         2.29223571750000   -0.08395498400000    2.66993255870000
H         3.51679173710000   -1.48763560540000    0.92176587270000
H         3.08383370850000   -2.61515545460000   -1.40113264410000
H        -3.08496163460000    2.61726747200000   -1.39402996420000
H        -3.51442507130000    1.48846006220000    0.92895780040000
H        -2.28561214890000    0.08336315290000    2.67483385310000
H        -0.56316961060000   -2.06509198320000    1.34248194200000
H        -1.25800168310000   -2.07801335610000    3.03473177220000
$end

$rem
BASIS = 6-31G*
GUI = 2
METHOD = B3LYP
PRINT_ORBITALS false
MOLDEN_FORMAT false
--------------------------------------------------------------
 ----------------------------------------------------------------
             Standard Nuclear Orientation (Angstroms)
    I     Atom           X                Y                Z
 ----------------------------------------------------------------
    1      C      -0.1200894230    -2.0423663576    -1.9249998580
    2      C      -1.2217211998    -1.8375610822    -1.2156609605
    3      C      -1.5822510233    -0.6117073958    -0.5237041388
    4      C      -2.9426389756    -0.2506567067    -0.3187564377
    5      C      -3.0986346170     0.9493973860     0.2870386508
    6      S      -1.5910344375     1.6866152004     0.6574436065
    7      C      -0.7208600528     0.3403223779    -0.0240256468
    8      C       0.7206615059     0.3407215172     0.0244068373
    9      S       1.5900245807     1.6874418492    -0.6571938250
   10      C       3.0980443540     0.9503616620    -0.2880299681
   11      C       2.9427100554    -0.2498344965     0.3176716788
   12      C       1.5825760036    -0.6111166957     0.5235046945
   13      C       1.2223879403    -1.8371387890     1.2153819208
   14      C       0.1219379112    -2.0411574119     1.9267107069
   15      H       0.0556988901    -2.9777058727    -2.4276658450
   16      H       0.6374628254    -1.2870253194    -2.0407140565
   17      H      -1.9746600162    -2.6144224343    -1.1619888162
   18      H      -3.7638891786    -0.8680859426    -0.6376689175
   19      H      -4.0079166158     1.4547001475     0.5454314899
   20      H       4.0070112063     1.4559540623    -0.5469359159
   21      H       3.7642666679    -0.8671474392     0.6359384094
   22      H       1.9743883909    -2.6148564421     1.1595897329
   23      H      -0.6347553580    -1.2851594494     2.0439562802
   24      H      -0.0541839757    -2.9767481499     2.4288362577
 ----------------------------------------------------------------
 Molecular Point Group                 C1    NOp =  1
 Largest Abelian Subgroup              C1    NOp =  1
 Nuclear Repulsion Energy =        1055.59839802 hartrees
 There are       57 alpha and       57 beta electrons
 Requested basis set is 6-31G(d)
 There are 78 shells and 238 basis functions

 Total QAlloc Memory Limit   4000 MB
 Mega-Array Size       188 MB
 MEM_STATIC part       192 MB
 A cutoff of  1.0D-08 yielded   2166 shell pairs
 There are     22136 function pairs
 Smallest overlap matrix eigenvalue = 7.15E-04

 Scale SEOQF with 1.000000e-01/1.000000e-01/1.000000e-01

 Standard Electronic Orientation quadrupole field applied
 Nucleus-field energy     =     0.0000000209 hartrees
 Guess from superposition of atomic densities
 Warning:  Energy on first SCF cycle will be non-variational
 SAD guess density has 114.000000 electrons

 -----------------------------------------------------------------------
  General SCF calculation program by
  Eric Jon Sundstrom, Paul Horn, Yuezhi Mao, Dmitri Zuev, Alec White,
  David Stuck, Shaama M.S., Shane Yost, Joonho Lee, David Small,
  Daniel Levine, Susi Lehtola, Hugh Burton, Evgeny Epifanovsky,
  Bang C. Huynh
 -----------------------------------------------------------------------
 Exchange:     0.2000 Hartree-Fock + 0.0800 Slater + 0.7200 B88
 Correlation:  0.1900 VWN1RPA + 0.8100 LYP
 Using SG-1 standard quadrature grid
 A restricted SCF calculation will be
 performed using DIIS
 SCF converges when DIIS error is below 1.0e-05
 ---------------------------------------
  Cycle       Energy         DIIS error
 ---------------------------------------
    1   -1263.0821859674      5.24e-02  
    2   -1259.3393786218      5.72e-03  
    3   -1259.0420529065      8.14e-03  
    4   -1259.5733733639      1.82e-03  
    5   -1259.5981067993      6.20e-04  
    6   -1259.6000867580      3.22e-04  
    7   -1259.6007996557      1.12e-04  
    8   -1259.6008911237      2.89e-05  
    9   -1259.6008973489      5.64e-06  Convergence criterion met
 ---------------------------------------
 SCF time:   CPU 46.83s  wall 46.00s 
 SCF   energy in the final basis set =    -1259.6008973489
 Total energy in the final basis set =    -1259.6008973489
 
 --------------------------------------------------------------
 
                    Orbital Energies (a.u.)
 --------------------------------------------------------------
 
 Alpha MOs
 -- Occupied --
-88.9077 -88.9077 -10.2203 -10.2199 -10.2113 -10.2112 -10.1952 -10.1952
-10.1896 -10.1895 -10.1873 -10.1873 -10.1740 -10.1740  -7.9690  -7.9690
 -5.9330  -5.9330  -5.9293  -5.9293  -5.9262  -5.9262  -0.8998  -0.8770
 -0.7931  -0.7847  -0.7639  -0.7214  -0.7183  -0.6941  -0.6142  -0.5937
 -0.5755  -0.5637  -0.5568  -0.4971  -0.4943  -0.4717  -0.4539  -0.4537
 -0.4189  -0.4106  -0.4059  -0.3927  -0.3866  -0.3779  -0.3740  -0.3605
 -0.3604  -0.3388  -0.3352  -0.3054  -0.2820  -0.2550  -0.2398  -0.2273
 -0.1992
 -- Virtual --
 -0.0486  -0.0104   0.0158   0.0173   0.0311   0.0468   0.0918   0.0936
  0.1112   0.1125   0.1274   0.1363   0.1410   0.1440   0.1505   0.1562
  0.1775   0.1825   0.2030   0.2122   0.2414   0.2503   0.2917   0.2965
  0.2986   0.3236   0.3367   0.3395   0.3494   0.3523   0.3711   0.3928
  0.4074   0.4117   0.4447   0.4536   0.4542   0.4706   0.4759   0.4802
  0.4873   0.5204   0.5209   0.5517   0.5561   0.5572   0.5684   0.5845
  0.5927   0.5965   0.6036   0.6047   0.6345   0.6373   0.6574   0.6765
  0.6831   0.6868   0.7083   0.7087   0.7533   0.7690   0.7724   0.7975
  0.8128   0.8329   0.8360   0.8426   0.8480   0.8507   0.8657   0.8712
  0.8729   0.8756   0.8774   0.8880   0.9223   0.9284   0.9350   0.9419
  0.9577   0.9838   0.9897   1.0021   1.0171   1.0190   1.0225   1.0285
  1.0711   1.0745   1.0909   1.0920   1.0948   1.1236   1.1399   1.1673
  1.1747   1.2466   1.2599   1.2789   1.3048   1.3590   1.3736   1.3969
  1.4127   1.4409   1.4566   1.4681   1.4702   1.4874   1.4982   1.5007
  1.5506   1.5679   1.6248   1.6887   1.7079   1.7108   1.7492   1.7643
  1.8230   1.8582   1.8608   1.8762   1.9058   1.9218   1.9615   1.9902
  1.9931   1.9999   2.0152   2.0189   2.0911   2.0981   2.1171   2.1515
  2.1981   2.2203   2.2257   2.2486   2.2558   2.2614   2.2837   2.3017
  2.3326   2.3882   2.3939   2.3981   2.4297   2.4344   2.4814   2.4907
  2.5144   2.5950   2.6657   2.6949   2.6955   2.7449   2.7614   2.7786
  2.7821   2.8151   2.8562   3.0833   3.1204   3.1239   3.2939   3.9340
  3.9738   4.0777   4.1269   4.1305   4.1633   4.1880   4.2003   4.3019
  4.3082   4.3676   4.4234   4.5760   4.6973
 --------------------------------------------------------------
 
          Ground-State Mulliken Net Atomic Charges

     Atom                 Charge (a.u.)
  ----------------------------------------
      1 C                    -0.341513
      2 C                    -0.107368
      3 C                     0.200939
      4 C                    -0.140614
      5 C                    -0.342969
      6 S                     0.262573
      7 C                    -0.271362
      8 C                    -0.271297
      9 S                     0.262618
     10 C                    -0.342981
     11 C                    -0.140552
     12 C                     0.200715
     13 C                    -0.107402
     14 C                    -0.341388
     15 H                     0.138851
     16 H                     0.162403
     17 H                     0.126566
     18 H                     0.141186
     19 H                     0.171273
     20 H                     0.171276
     21 H                     0.141193
     22 H                     0.126611
     23 H                     0.162374
     24 H                     0.138867
  ----------------------------------------
  Sum of atomic charges =     0.000000

 -----------------------------------------------------------------
                    Cartesian Multipole Moments
 -----------------------------------------------------------------
    Charge (ESU x 10^10)
                -0.0000
    Dipole Moment (Debye)
         X       0.0004      Y      -0.9776      Z      -0.0006
       Tot       0.9776
    Quadrupole Moments (Debye-Ang)
        XX     -81.0187     XY       0.0005     YY     -91.5343
        XZ      -1.7857     YZ       0.0015     ZZ     -98.2380
    Octopole Moments (Debye-Ang^2)
       XXX      -0.0152    XXY       8.3571    XYY       0.0089
       YYY      -7.2883    XXZ      -0.0284    XYZ      -8.0714
       YYZ      -0.0107    XZZ      -0.0117    YZZ      -3.5187
       ZZZ       0.0092
    Hexadecapole Moments (Debye-Ang^3)
      XXXX   -1903.2710   XXXY      -0.0044   XXYY    -518.7136
      XYYY       0.0066   YYYY   -1235.2508   XXXZ     -19.3754
      XXYZ       0.0176   XYYZ      -8.4301   YYYZ       0.0041
      XXZZ    -485.9813   XYZZ       0.0335   YYZZ    -297.5346
      XZZZ     -21.0071   YZZZ      -0.0003   ZZZZ    -656.0393
 -----------------------------------------------------------------
Archival summary:
1\1\nia1977.scinet.local\SP\ProcedureUnspecified\6-31G*\21210\rhickman\MonFeb718:03:212022MonFeb718:03:212022\0\\#,ProcedureUnspecified,6-31G*,\\0,1\S\C,1,1.71863\H,2,1.07186,1,119.335\C,2,1.35332,1,112.072,3,-179.876,0\H,4,1.07579,2,123.618,1,-179.525,0\C,4,1.42227,2,113.567,1,-0.831816,0\C,6,1.37768,4,111.738,2,1.45486,0\C,7,1.44234,6,129.587,4,177.149,0\C,8,1.37769,7,129.588,6,-52.5708,0\C,9,1.42233,8,111.736,7,177.205,0\H,10,1.07581,9,122.802,8,-179.847,0\C,10,1.35331,9,113.569,8,1.44428,0\H,12,1.07186,10,128.589,9,179.312,0\C,9,1.4531,8,126.909,7,-4.32235,0\H,14,1.08319,9,114.14,8,156.011,0\C,14,1.32616,9,126.235,8,-27.1969,0\H,16,1.07602,14,122.272,9,0.852271,0\H,16,1.07631,14,121.311,9,-178.398,0\C,6,1.45312,4,121.35,2,-177.13,0\H,19,1.08326,6,114.151,4,-25.7591,0\C,19,1.32612,6,126.22,4,151.047,0\H,21,1.07604,19,122.27,6,0.876284,0\H,21,1.07633,19,121.316,6,-178.429,0\S,12,1.71859,10,112.071,9,-0.834013,0\\\@

 Total job time:  47.62s(wall), 47.05s(cpu) 
 Mon Feb  7 18:03:21 2022

        *************************************************************
        *                                                           *
        *  Thank you very much for using Q-Chem.  Have a nice day.  *
        *                                                           *
        *************************************************************


