
Running Job 1 of 1 fragments/C091/conf-1/spe_input.inp
qchem fragments/C091/conf-1/spe_input.inp_142188.0 /gpfs/fs0/scratch/a/aspuru/rhickman/descriptor_computation/qchem142188/ 0
/scinet/niagara/software/commercial/qc52/exe/qcprog.exe_s fragments/C091/conf-1/spe_input.inp_142188.0 /gpfs/fs0/scratch/a/aspuru/rhickman/descriptor_computation/qchem142188/
                  Welcome to Q-Chem
     A Quantum Leap Into The Future Of Chemistry


 Q-Chem 5.2, Q-Chem, Inc., Pleasanton, CA (2019)

 License issued to: SRG Alan Aspuru-Guzik, University of Toronto

 Yihan Shao,  Zhengting Gan,  E. Epifanovsky,  A. T. B. Gilbert,  M. Wormit,  
 J. Kussmann,  A. W. Lange,  A. Behn,  Jia Deng,  Xintian Feng,  D. Ghosh,  
 M. Goldey,  P. R. Horn,  L. D. Jacobson,  I. Kaliman,  T. Kus,  A. Landau,  
 Jie Liu,  E. I. Proynov,  R. M. Richard,  R. P. Steele,  E. J. Sundstrom,  
 H. L. Woodcock III,  P. M. Zimmerman,  D. Zuev,  B. Albrecht,  E. Alguire,  
 S. A. Baeppler,  D. Barton,  Z. Benda,  Y. A. Bernard,  E. J. Berquist,  
 K. B. Bravaya,  H. Burton,  D. Casanova,  Chun-Min Chang,  Yunqing Chen,  
 A. Chien,  K. D. Closser,  M. P. Coons,  S. Coriani,  S. Dasgupta,  
 A. L. Dempwolff,  M. Diedenhofen,  Hainam Do,  R. G. Edgar,  Po-Tung Fang,  
 S. Faraji,  S. Fatehi,  Qingguo Feng,  K. D. Fenk,  J. Fosso-Tande,  
 J. Gayvert,  Qinghui Ge,  A. Ghysels,  G. Gidofalvi,  J. Gomes,  
 J. Gonthier,  A. Gunina,  D. Hait,  M. W. D. Hanson-Heine,  
 P. H. P. Harbach,  A. W. Hauser,  M. F. Herbst,  J. E. Herr,  
 E. G. Hohenstein,  Z. C. Holden,  Kerwin Hui,  B. C. Huynh,  T.-C. Jagau,  
 Hyunjun Ji,  B. Kaduk,  K. Khistyaev,  Jaehoon Kim,  P. Klunzinger,  K. Koh,  
 D. Kosenkov,  L. Koulias,  T. Kowalczyk,  C. M. Krauter,  A. Kunitsa,  
 Ka Un Lao,  A. Laurent,  K. V. Lawler,  Joonho Lee,  D. Lefrancois,  
 S. Lehtola,  D. S. Levine,  Yi-Pei Li,  You-Sheng Lin,  Fenglai Liu,  
 E. Livshits,  A. Luenser,  P. Manohar,  E. Mansoor,  S. F. Manzer,  
 Shan-Ping Mao,  Yuezhi Mao,  N. Mardirossian,  A. V. Marenich,  
 T. Markovich,  L. A. Martinez-Martinez,  S. A. Maurer,  N. J. Mayhall,  
 S. C. McKenzie,  J.-M. Mewes,  P. Morgante,  A. F. Morrison,  
 J. W. Mullinax,  K. Nanda,  T. S. Nguyen-Beck,  R. Olivares-Amaya,  
 J. A. Parkhill,  Zheng Pei,  T. M. Perrine,  F. Plasser,  P. Pokhilko,  
 S. Prager,  A. Prociuk,  E. Ramos,  D. R. Rehn,  F. Rob,  M. Scheurer,  
 M. Schneider,  N. Sergueev,  S. M. Sharada,  S. Sharma,  D. W. Small,  
 T. Stauch,  T. Stein,  Yu-Chuan Su,  A. J. W. Thom,  A. Tkatchenko,  
 T. Tsuchimochi,  N. M. Tubman,  L. Vogt,  M. L. Vidal,  O. Vydrov,  
 M. A. Watson,  J. Wenzel,  M. de Wergifosse,  T. A. Wesolowski,  A. White,  
 J. Witte,  A. Yamada,  Jun Yang,  K. Yao,  S. Yeganeh,  S. R. Yost,  
 Zhi-Qiang You,  A. Zech,  Igor Ying Zhang,  Xing Zhang,  Yan Zhao,  
 Ying Zhu,  B. R. Brooks,  G. K. L. Chan,  C. J. Cramer,  M. S. Gordon,  
 W. J. Hehre,  A. Klamt,  M. W. Schmidt,  C. D. Sherrill,  D. G. Truhlar,  
 A. Aspuru-Guzik,  R. Baer,  A. T. Bell,  N. A. Besley,  Jeng-Da Chai,  
 A. E. DePrince, III,  R. A. DiStasio Jr.,  A. Dreuw,  B. D. Dunietz,  
 T. R. Furlani,  Chao-Ping Hsu,  Yousung Jung,  Jing Kong,  D. S. Lambrecht,  
 WanZhen Liang,  C. Ochsenfeld,  V. A. Rassolov,  L. V. Slipchenko,  
 J. E. Subotnik,  T. Van Voorhis,  J. M. Herbert,  A. I. Krylov,  
 P. M. W. Gill,  M. Head-Gordon

 Contributors to earlier versions of Q-Chem not listed above: 
 R. D. Adamson,  B. Austin,  J. Baker,  G. J. O. Beran,  K. Brandhorst,  
 S. T. Brown,  E. F. C. Byrd,  A. K. Chakraborty,  C.-L. Cheng,  
 Siu Hung Chien,  D. M. Chipman,  D. L. Crittenden,  H. Dachsel,  
 R. J. Doerksen,  A. D. Dutoi,  L. Fusti-Molnar,  W. A. Goddard III,  
 A. Golubeva-Zadorozhnaya,  S. R. Gwaltney,  G. Hawkins,  A. Heyden,  
 S. Hirata,  G. Kedziora,  F. J. Keil,  C. Kelley,  Jihan Kim,  R. A. King,  
 R. Z. Khaliullin,  P. P. Korambath,  W. Kurlancheek,  A. M. Lee,  M. S. Lee,  
 S. V. Levchenko,  Ching Yeh Lin,  D. Liotard,  R. C. Lochan,  I. Lotan,  
 P. E. Maslen,  N. Nair,  D. P. O'Neill,  D. Neuhauser,  E. Neuscamman,  
 C. M. Oana,  R. Olson,  B. Peters,  R. Peverati,  P. A. Pieniazek,  
 Y. M. Rhee,  J. Ritchie,  M. A. Rohrdanz,  E. Rosta,  N. J. Russ,  
 H. F. Schaefer III,  N. E. Schultz,  N. Shenvi,  A. C. Simmonett,  A. Sodt,  
 D. Stuck,  K. S. Thanthiriwatte,  V. Vanovschi,  Tao Wang,  A. Warshel,  
 C. F. Williams,  Q. Wu,  X. Xu,  W. Zhang

 Please cite Q-Chem as follows:
 Y. Shao et al., Mol. Phys. 113, 184-215 (2015)
 DOI: 10.1080/00268976.2014.952696

 Q-Chem 5.2.1 for Intel X86 EM64T Linux

 Parts of Q-Chem use Armadillo 8.300.2 (Tropical Shenanigans).
 http://arma.sourceforge.net/

 Q-Chem begins on Mon Feb  7 17:16:08 2022  

Host: 
0

     Scratch files written to /gpfs/fs0/scratch/a/aspuru/rhickman/descriptor_computation/qchem142188//
 Jul1719 |scratch|qcdevops|jenkins|workspace|build_RNUM -1
Processing $rem in /scinet/niagara/software/commercial/qc52/config/preferences:
	 MEM_TOTAL  4000 
NAlpha2: 86
NElect   86
Mult     1

Checking the input file for inconsistencies... 	...done.

--------------------------------------------------------------
User input:
--------------------------------------------------------------
$molecule
0 1
C         4.09775105620000   -0.28086087720000    0.01327685170000
C         3.04520452020000    0.52802468980000    0.00096870960000
C         1.66879336470000    0.05022156010000    0.00367671480000
C         0.60903830000000    0.95819325790000   -0.01071763790000
C        -0.70297231940000    0.50122188560000   -0.00844177250000
O        -1.78028183220000    1.32286658040000   -0.02243148010000
C        -1.57879256280000    2.71605903200000   -0.04072498730000
C        -0.92427132220000   -0.89497910370000    0.00886471300000
C        -2.21803776480000   -1.55604337140000    0.01382965430000
C        -3.42514699590000   -1.00056077590000    0.00902575510000
C         0.22158344810000   -1.69640592620000    0.02205757640000
N         1.46190497280000   -1.26632235630000    0.01995629120000
H         5.10706929040000    0.09337015000000    0.01073920870000
H         3.95911960050000   -1.34786636220000    0.02617609220000
H         3.16918279360000    1.60340750480000   -0.01204847300000
H         0.83084916590000    2.01362258740000   -0.02363577390000
H        -2.57527829300000    3.15547420540000   -0.05110388080000
H        -1.03637835760000    3.03297478720000   -0.93700850930000
H        -1.04415592950000    3.05739758060000    0.85127787600000
H        -2.14370052140000   -2.63785300740000    0.02326548020000
H        -3.57532530360000    0.06238605750000    0.00019318780000
H        -4.31083888510000   -1.61435007020000    0.01425411400000
H         0.11182217800000   -2.77434500390000    0.03583248050000
$end

$rem
BASIS = 6-31G*
GUI = 2
METHOD = B3LYP
PRINT_ORBITALS false
MOLDEN_FORMAT false
--------------------------------------------------------------
 ----------------------------------------------------------------
             Standard Nuclear Orientation (Angstroms)
    I     Atom           X                Y                Z
 ----------------------------------------------------------------
    1      C       4.1149907255    -0.1599626995     0.0003047987
    2      C       3.0340209445     0.6106249275     0.0010812079
    3      C       1.6756853078     0.0836193643     0.0005640140
    4      C       0.5839445479     0.9529885099     0.0005827440
    5      C      -0.7107823381     0.4491219593    -0.0002358406
    6      O      -1.8169621912     1.2315905993    -0.0009160792
    7      C      -1.6657291523     2.6312499382    -0.0012134142
    8      C      -0.8817067940    -0.9542433983    -0.0009206308
    9      C      -2.1508583326    -1.6614320817    -0.0017940948
   10      C      -3.3771618494    -1.1497206691     0.0034786702
   11      C       0.2922449073    -1.7140325539    -0.0009239246
   12      N       1.5162961897    -1.2396154407    -0.0001252531
   13      H       5.1101951533     0.2503380751     0.0004481803
   14      H       4.0148358275    -1.2313421506    -0.0006139507
   15      H       3.1192307557     1.6898499521     0.0020259830
   16      H       0.7676408285     2.0157929942     0.0011418415
   17      H      -2.6773894600     3.0346297796    -0.0035267991
   18      H      -1.1375038317     2.9792351420    -0.8944419551
   19      H      -1.1412748340     2.9798400020     0.8940240280
   20      H      -2.0376602814    -2.7398975509    -0.0068519638
   21      H      -3.5654720476    -0.0928405353     0.0090608904
   22      H      -4.2402025147    -1.7949917358     0.0025749106
   23      H       0.2213368070    -2.7953104631    -0.0011769384
 ----------------------------------------------------------------
 Molecular Point Group                 C1    NOp =  1
 Largest Abelian Subgroup              C1    NOp =  1
 Nuclear Repulsion Energy =         655.04414446 hartrees
 There are       43 alpha and       43 beta electrons
 Requested basis set is 6-31G(d)
 There are 70 shells and 202 basis functions

 Total QAlloc Memory Limit   4000 MB
 Mega-Array Size       188 MB
 MEM_STATIC part       192 MB
 A cutoff of  1.0D-08 yielded   1718 shell pairs
 There are     15720 function pairs
 Smallest overlap matrix eigenvalue = 5.43E-04

 Scale SEOQF with 1.000000e-01/1.000000e-01/1.000000e+00

 Standard Electronic Orientation quadrupole field applied
 Nucleus-field energy     =     0.0000000264 hartrees
 Guess from superposition of atomic densities
 Warning:  Energy on first SCF cycle will be non-variational
 SAD guess density has 86.000000 electrons

 -----------------------------------------------------------------------
  General SCF calculation program by
  Eric Jon Sundstrom, Paul Horn, Yuezhi Mao, Dmitri Zuev, Alec White,
  David Stuck, Shaama M.S., Shane Yost, Joonho Lee, David Small,
  Daniel Levine, Susi Lehtola, Hugh Burton, Evgeny Epifanovsky,
  Bang C. Huynh
 -----------------------------------------------------------------------
 Exchange:     0.2000 Hartree-Fock + 0.0800 Slater + 0.7200 B88
 Correlation:  0.1900 VWN1RPA + 0.8100 LYP
 Using SG-1 standard quadrature grid
 A restricted SCF calculation will be
 performed using DIIS
 SCF converges when DIIS error is below 1.0e-05
 ---------------------------------------
  Cycle       Energy         DIIS error
 ---------------------------------------
    1    -520.3474636586      5.75e-02  
    2    -517.4354708621      5.69e-03  
    3    -517.4078148014      6.29e-03  
    4    -517.5954003090      1.71e-03  
    5    -517.6093511198      4.25e-04  
    6    -517.6101348339      1.84e-04  
    7    -517.6103091409      4.29e-05  
    8    -517.6103162342      2.23e-05  
    9    -517.6103187543      2.37e-06  Convergence criterion met
 ---------------------------------------
 SCF time:   CPU 27.77s  wall 28.00s 
 SCF   energy in the final basis set =     -517.6103187543
 Total energy in the final basis set =     -517.6103187543
 
 --------------------------------------------------------------
 
                    Orbital Energies (a.u.)
 --------------------------------------------------------------
 
 Alpha MOs
 -- Occupied --
-19.1959 -14.3136 -10.2644 -10.2518 -10.2234 -10.2150 -10.1966 -10.1917
-10.1873 -10.1847 -10.1764 -10.1709  -1.0867  -0.9441  -0.8220  -0.7963
 -0.7675  -0.7322  -0.7173  -0.6428  -0.6240  -0.5770  -0.5696  -0.5178
 -0.5144  -0.4854  -0.4779  -0.4701  -0.4472  -0.4356  -0.4185  -0.4095
 -0.4048  -0.3934  -0.3732  -0.3568  -0.3546  -0.3238  -0.3150  -0.2735
 -0.2506  -0.2490  -0.2105
 -- Virtual --
 -0.0463  -0.0013   0.0272   0.0891   0.0900   0.0972   0.1170   0.1285
  0.1384   0.1572   0.1592   0.1668   0.1825   0.1885   0.1929   0.2061
  0.2207   0.2459   0.2745   0.3060   0.3383   0.3444   0.3605   0.3653
  0.3879   0.3940   0.4691   0.4901   0.4980   0.5046   0.5332   0.5385
  0.5401   0.5417   0.5610   0.5719   0.5721   0.5922   0.5999   0.6135
  0.6324   0.6385   0.6622   0.6649   0.6817   0.6924   0.7010   0.7145
  0.7241   0.7273   0.7788   0.8260   0.8276   0.8400   0.8451   0.8551
  0.8635   0.8758   0.8815   0.8981   0.9092   0.9139   0.9308   0.9529
  0.9667   0.9808   1.0064   1.0177   1.0455   1.0462   1.0686   1.0865
  1.1321   1.1446   1.1580   1.2169   1.2375   1.2628   1.2695   1.2984
  1.3185   1.3377   1.3740   1.3797   1.3883   1.4198   1.4458   1.4677
  1.4896   1.4950   1.5108   1.5326   1.5333   1.6478   1.6729   1.6778
  1.6850   1.7407   1.7635   1.7997   1.8314   1.8812   1.8834   1.8929
  1.9400   1.9425   1.9870   1.9976   2.0175   2.0405   2.0421   2.1006
  2.1046   2.1199   2.1359   2.1633   2.1812   2.2163   2.2460   2.2583
  2.2796   2.2999   2.3091   2.3188   2.3680   2.3795   2.3968   2.4359
  2.4816   2.5147   2.5297   2.6106   2.6202   2.6383   2.6738   2.7006
  2.7257   2.7306   2.8025   2.8732   2.9024   2.9255   2.9928   3.0299
  3.1309   3.3045   3.4768   4.0356   4.0889   4.1225   4.1498   4.1740
  4.2415   4.2702   4.3183   4.3319   4.5124   4.5222   4.7919
 --------------------------------------------------------------
 
          Ground-State Mulliken Net Atomic Charges

     Atom                 Charge (a.u.)
  ----------------------------------------
      1 C                    -0.331529
      2 C                    -0.108227
      3 C                     0.325139
      4 C                    -0.267131
      5 C                     0.364762
      6 O                    -0.501731
      7 C                    -0.220128
      8 C                     0.116717
      9 C                    -0.117820
     10 C                    -0.356051
     11 C                    -0.033941
     12 N                    -0.497031
     13 H                     0.140173
     14 H                     0.172805
     15 H                     0.120841
     16 H                     0.133625
     17 H                     0.174825
     18 H                     0.159559
     19 H                     0.159550
     20 H                     0.126907
     21 H                     0.165858
     22 H                     0.135000
     23 H                     0.137828
  ----------------------------------------
  Sum of atomic charges =     0.000000

 -----------------------------------------------------------------
                    Cartesian Multipole Moments
 -----------------------------------------------------------------
    Charge (ESU x 10^10)
                 0.0000
    Dipole Moment (Debye)
         X      -0.9847      Y       2.7885      Z      -0.0003
       Tot       2.9572
    Quadrupole Moments (Debye-Ang)
        XX     -68.4586     XY       0.6467     YY     -60.0501
        XZ      -0.0054     YZ       0.0131     ZZ     -73.6903
    Octopole Moments (Debye-Ang^2)
       XXX       1.0784    XXY      13.1308    XYY     -17.1954
       YYY      20.0873    XXZ       0.0315    XYZ      -0.0127
       YYZ      -0.0457    XZZ      -3.5616    YZZ       4.9805
       ZZZ      -0.0107
    Hexadecapole Moments (Debye-Ang^3)
      XXXX   -2026.1206   XXXY      -7.5919   XXYY    -478.2233
      XYYY     -28.8055   YYYY    -807.4034   XXXZ      -0.1503
      XXYZ       0.0635   XYYZ       0.1059   YYYZ       0.0735
      XXZZ    -413.1852   XYZZ     -12.5628   YYZZ    -167.3271
      XZZZ       0.0074   YZZZ       0.0050   ZZZZ     -79.6427
 -----------------------------------------------------------------
Archival summary:
1\1\nia1977.scinet.local\SP\ProcedureUnspecified\6-31G*\111011\rhickman\MonFeb717:16:362022MonFeb717:16:362022\0\\#,ProcedureUnspecified,6-31G*,\\0,1\O\C,1,1.35495\C,2,1.38932,1,123.461\H,3,1.07856,2,121.071,1,0.0265022,0\C,3,1.3956,2,120.205,1,-179.967,0\N,5,1.3328,3,121.662,2,-0.00517125,0\C,6,1.31277,5,118.054,3,0.00633785,0\H,7,1.0836,6,114.937,5,-179.984,0\C,7,1.39837,6,125.903,5,-0.0104031,0\C,1,1.40781,2,119.107,3,0.0192896,0\H,10,1.08912,1,105.572,2,179.903,0\H,10,1.09452,1,111.599,2,61.3852,0\H,10,1.09454,1,111.589,2,-61.5801,0\C,9,1.45288,7,117.962,6,-179.996,0\H,14,1.0844,9,113.135,7,-0.257455,0\C,14,1.3288,9,128.223,7,179.702,0\H,16,1.07354,14,122.753,9,0.014907,0\H,16,1.0776,14,120.565,9,-179.967,0\C,5,1.45699,3,120.264,2,179.984,0\H,19,1.08258,5,115.72,3,0.0329459,0\C,19,1.32752,5,123.311,3,-179.959,0\H,21,1.07605,19,120.143,5,-0.00924715,0\H,21,1.07647,19,122.111,5,179.984,0\\\@

 Total job time:  28.03s(wall), 27.93s(cpu) 
 Mon Feb  7 17:16:36 2022

        *************************************************************
        *                                                           *
        *  Thank you very much for using Q-Chem.  Have a nice day.  *
        *                                                           *
        *************************************************************


