23
 energy: -33.945462296888 gnorm: 0.000061831627 xtb: 6.4.1 (23d549d)
C         4.09775105620000   -0.28086087720000    0.01327685170000
C         3.04520452020000    0.52802468980000    0.00096870960000
C         1.66879336470000    0.05022156010000    0.00367671480000
C         0.60903830000000    0.95819325790000   -0.01071763790000
C        -0.70297231940000    0.50122188560000   -0.00844177250000
O        -1.78028183220000    1.32286658040000   -0.02243148010000
C        -1.57879256280000    2.71605903200000   -0.04072498730000
C        -0.92427132220000   -0.89497910370000    0.00886471300000
C        -2.21803776480000   -1.55604337140000    0.01382965430000
C        -3.42514699590000   -1.00056077590000    0.00902575510000
C         0.22158344810000   -1.69640592620000    0.02205757640000
N         1.46190497280000   -1.26632235630000    0.01995629120000
H         5.10706929040000    0.09337015000000    0.01073920870000
H         3.95911960050000   -1.34786636220000    0.02617609220000
H         3.16918279360000    1.60340750480000   -0.01204847300000
H         0.83084916590000    2.01362258740000   -0.02363577390000
H        -2.57527829300000    3.15547420540000   -0.05110388080000
H        -1.03637835760000    3.03297478720000   -0.93700850930000
H        -1.04415592950000    3.05739758060000    0.85127787600000
H        -2.14370052140000   -2.63785300740000    0.02326548020000
H        -3.57532530360000    0.06238605750000    0.00019318780000
H        -4.31083888510000   -1.61435007020000    0.01425411400000
H         0.11182217800000   -2.77434500390000    0.03583248050000
