32
 energy: -39.100175772803 gnorm: 0.000080221318 xtb: 6.4.1 (23d549d)
C        -2.65514997210000    2.66250194410000   -0.24518836340000
C        -2.43865388880000    1.46665540540000    0.28574327620000
C        -1.20370880210000    0.69731826630000    0.13372667900000
C         0.01762550390000    1.36556324210000    0.07697581680000
C         1.22417688360000    0.70271382170000   -0.05583159870000
C         2.54376609150000    1.43314565230000   -0.09207286340000
C         2.47236959640000    2.93658488330000    0.14582948700000
C         1.20430124330000   -0.69803651690000   -0.13003826700000
C         2.43948091810000   -1.46781924830000   -0.27774838470000
C         2.65443111590000   -2.66241951980000    0.25662556480000
C        -0.01715275780000   -1.36621720900000   -0.07428067280000
C        -1.22376290750000   -0.70329336130000    0.05716108060000
C        -2.54363053820000   -1.43343017220000    0.08964463940000
C        -2.47379785870000   -2.93377223060000   -0.16758161890000
H        -3.58063918600000    3.19119420440000   -0.09142314230000
H        -1.92620193760000    3.15269021540000   -0.86885341060000
H        -3.21826148940000    1.00321404050000    0.87660509170000
H         0.00291303220000    2.43977612890000    0.16342282720000
H         3.00882903300000    1.25843348600000   -1.06840076970000
H         3.20179208640000    0.98937900750000    0.66111555780000
H         1.89525351140000    3.42993544100000   -0.63289757260000
H         3.47724437920000    3.35422929260000    0.13550307620000
H         2.02361131420000    3.15625029470000    1.11191155600000
H         3.22085838140000   -1.00581455920000   -0.86735142780000
H         1.92388955310000   -3.15078150890000    0.87988743780000
H         3.58014764830000   -3.19171531820000    0.10645129660000
H        -0.00243286250000   -2.44046934940000   -0.16031216050000
H        -3.20398503970000   -0.98023204160000   -0.65578317070000
H        -3.00514636630000   -1.27047505280000    1.06971422730000
H        -2.02306840700000   -3.14098406880000   -1.13551676560000
H        -3.47922746280000   -3.35022811090000   -0.16507248920000
H        -1.89908722160000   -3.43838357770000    0.60566904040000
