
Running Job 1 of 1 tidas/B032/conf-3/spe_input.inp
qchem tidas/B032/conf-3/spe_input.inp_239819.0 /home/a/aspuru/seifridm/acdc_laser/descriptor_computation/qchem239819/ 0
/gpfs/fs1/scinet/niagara/software/commercial/qc54/exe/qcprog.exe_s tidas/B032/conf-3/spe_input.inp_239819.0 /home/a/aspuru/seifridm/acdc_laser/descriptor_computation/qchem239819/
                  Welcome to Q-Chem
     A Quantum Leap Into The Future Of Chemistry


 Q-Chem 5.4, Q-Chem, Inc., Pleasanton, CA (2021)

 License issued to: SRG Alan Aspuru-Guzik, University of Toronto

 E. Epifanovsky,  A. T. B. Gilbert,  Xintian Feng,  Joonho Lee,  Yuezhi Mao,  
 N. Mardirossian,  P. Pokhilko,  A. White,  M. Wormit,  M. P. Coons,  
 A. L. Dempwolff,  Zhengting Gan,  D. Hait,  P. R. Horn,  L. D. Jacobson,  
 I. Kaliman,  J. Kussmann,  A. W. Lange,  Ka Un Lao,  D. S. Levine,  Jie Liu,  
 S. C. McKenzie,  A. F. Morrison,  K. Nanda,  F. Plasser,  D. R. Rehn,  
 M. L. Vidal,  Zhi-Qiang You,  Ying Zhu,  B. Alam,  B. Albrecht,  
 A. Aldossary,  E. Alguire,  J. H. Andersen,  D. Barton,  K. Begam,  A. Behn,  
 Y. A. Bernard,  E. J. Berquist,  H. Burton,  A. Carreras,  K. Carter-Fenk,  
 Romit Chakraborty,  A. D. Chien,  K. D. Closser,  V. Cofer-Shabica,  
 S. Dasgupta,  Jia Deng,  M. de Wergifosse,  M. Diedenhofen,  Hainam Do,  
 S. Ehlert,  Po-Tung Fang,  S. Fatehi,  Qingguo Feng,  T. Friedhoff,  
 J. Gayvert,  Qinghui Ge,  G. Gidofalvi,  M. Goldey,  J. Gomes,  
 C. Gonzalez-Espinoza,  S. Gulania,  A. Gunina,  M. W. D. Hanson-Heine,  
 P. H. P. Harbach,  A. W. Hauser,  M. F. Herbst,  M. Hernandez Vera,  
 M. Hodecker,  Z. C. Holden,  S. Houck,  Xunkun Huang,  Kerwin Hui,  
 B. C. Huynh,  M. Ivanov,  Hyunjun Ji,  Hanjie Jiang,  B. Kaduk,  S. Kaehler,  
 K. Khistyaev,  Jaehoon Kim,  P. Klunzinger,  Z. Koczor-Benda,  
 Joong Hoon Koh,  D. Kosenkov,  L. Koulias,  T. Kowalczyk,  C. M. Krauter,  
 K. Kue,  A. Kunitsa,  T. Kus,  A. Landau,  K. V. Lawler,  D. Lefrancois,  
 S. Lehtola,  Rain Li,  Yi-Pei Li,  Jiashu Liang,  M. Liebenthal,  
 Hung-Hsuan Lin,  You-Sheng Lin,  Fenglai Liu,  Kuan-Yu Liu,  
 M. Loipersberger,  A. Luenser,  A. Manjanath,  P. Manohar,  E. Mansoor,  
 S. F. Manzer,  Shan-Ping Mao,  A. V. Marenich,  T. Markovich,  S. Mason,  
 S. A. Maurer,  P. F. McLaughlin,  M. F. S. J. Menger,  J.-M. Mewes,  
 S. A. Mewes,  P. Morgante,  J. W. Mullinax,  K. J. Oosterbaan,  G. Paran,  
 Alexander C. Paul,  Suranjan K. Paul,  F. Pavosevic,  Zheng Pei,  S. Prager,  
 E. I. Proynov,  E. Ramos,  B. Rana,  A. E. Rask,  A. Rettig,  R. M. Richard,  
 F. Rob,  E. Rossomme,  T. Scheele,  M. Scheurer,  M. Schneider,  
 N. Sergueev,  S. M. Sharada,  W. Skomorowski,  D. W. Small,  C. J. Stein,  
 Yu-Chuan Su,  E. J. Sundstrom,  Zhen Tao,  J. Thirman,  T. Tsuchimochi,  
 N. M. Tubman,  S. P. Veccham,  O. Vydrov,  J. Wenzel,  J. Witte,  A. Yamada,  
 Kun Yao,  S. Yeganeh,  S. R. Yost,  A. Zech,  Igor Ying Zhang,  Xing Zhang,  
 Yu Zhang,  D. Zuev,  A. Aspuru-Guzik,  A. T. Bell,  N. A. Besley,  
 K. B. Bravaya,  B. R. Brooks,  D. Casanova,  Jeng-Da Chai,  S. Coriani,  
 C. J. Cramer,  A. E. DePrince, III,  R. A. DiStasio Jr.,  A. Dreuw,  
 B. D. Dunietz,  T. R. Furlani,  W. A. Goddard III,  S. Grimme,  
 S. Hammes-Schiffer,  T. Head-Gordon,  W. J. Hehre,  Chao-Ping Hsu,  
 T.-C. Jagau,  Yousung Jung,  A. Klamt,  Jing Kong,  D. S. Lambrecht,  
 WanZhen Liang,  N. J. Mayhall,  C. W. McCurdy,  J. B. Neaton,  T. Neudecker,  
 C. Ochsenfeld,  J. A. Parkhill,  R. Peverati,  V. A. Rassolov,  Yihan Shao,  
 L. V. Slipchenko,  R. P. Steele,  J. E. Subotnik,  A. J. W. Thom,  
 A. Tkatchenko,  D. G. Truhlar,  T. Van Voorhis,  T. A. Wesolowski,  
 K. B. Whaley,  H. L. Woodcock III,  P. M. Zimmerman,  S. Faraji,  
 P. M. W. Gill,  M. Head-Gordon,  J. M. Herbert,  A. I. Krylov

 Additional authors since Version 5.4.0: 
 Chandrima Chakravarty,  L. Cunha,  R. Kang,  Yongbin Kim,  S. Kotaru,  
 Shaozhi Li,  Xiangyuan Li,  F. Matz,  A. Molle,  V. Parravicini,  
 Haisheng Ren,  Hengyuan Shen,  Yingli Su,  Hung-Yi Tsai,  C. Utku,  
 Fang Wang,  Jeff Yang,  F. Zeller

 Contributors to earlier versions of Q-Chem not listed above: 
 R. D. Adamson,  B. Austin,  R. Baer,  J. Baker,  G. J. O. Beran,  
 K. Brandhorst,  S. T. Brown,  E. F. C. Byrd,  Arup K. Chakraborty,  
 G. K. L. Chan,  Chun-Min Chang,  Yunqing Chen,  C.-L. Cheng,  
 Siu Hung Chien,  D. M. Chipman,  D. L. Crittenden,  H. Dachsel,  
 R. J. Doerksen,  A. D. Dutoi,  R. G. Edgar,  J. Fosso-Tande,  
 L. Fusti-Molnar,  D. Ghosh,  A. Ghysels,  A. Golubeva-Zadorozhnaya,  
 J. Gonthier,  M. S. Gordon,  S. R. Gwaltney,  G. Hawkins,  J. E. Herr,  
 A. Heyden,  S. Hirata,  E. G. Hohenstein,  G. Kedziora,  F. J. Keil,  
 C. Kelley,  Jihan Kim,  R. A. King,  R. Z. Khaliullin,  P. P. Korambath,  
 W. Kurlancheek,  A. Laurent,  A. M. Lee,  M. S. Lee,  S. V. Levchenko,  
 Ching Yeh Lin,  D. Liotard,  E. Livshits,  R. C. Lochan,  I. Lotan,  
 L. A. Martinez-Martinez,  P. E. Maslen,  N. Nair,  D. P. O'Neill,  
 D. Neuhauser,  E. Neuscamman,  C. M. Oana,  R. Olivares-Amaya,  R. Olson,  
 T. M. Perrine,  B. Peters,  P. A. Pieniazek,  A. Prociuk,  Y. M. Rhee,  
 J. Ritchie,  M. A. Rohrdanz,  E. Rosta,  N. J. Russ,  H. F. Schaefer III,  
 M. W. Schmidt,  N. E. Schultz,  S. Sharma,  N. Shenvi,  C. D. Sherrill,  
 A. C. Simmonett,  A. Sodt,  T. Stein,  D. Stuck,  K. S. Thanthiriwatte,  
 V. Vanovschi,  L. Vogt,  Tao Wang,  A. Warshel,  M. A. Watson,  
 C. F. Williams,  Q. Wu,  X. Xu,  Jun Yang,  W. Zhang,  Yan Zhao

   Please cite Q-Chem as follows:
  "Software for the frontiers of quantum chemistry:
   An overview of developments in the Q-Chem 5 package"
   J. Chem. Phys. 155, 084801 (2021)
   https://doi.org/10.1063/5.0055522 (open access)

 Q-Chem 5.4.2 for Intel X86 EM64T Linux

 Parts of Q-Chem use Armadillo 9.900.5 (Nocturnal Misbehaviour).
 http://arma.sourceforge.net/

 Q-Chem begins on Fri Aug 12 12:43:23 2022  

 Host: 
0

     Scratch files written to /home/a/aspuru/seifridm/acdc_laser/descriptor_computation/qchem239819//
 Dec1321 |scratch|qcdevops|jenkins|workspace|build_RNUM 6959   
 Processing $rem in /gpfs/fs1/scinet/niagara/software/commercial/qc54/config/preferences:
 Processing $rem in /home/a/aspuru/seifridm/.qchemrc:

 Checking the input file for inconsistencies... 	...done.

--------------------------------------------------------------
User input:
--------------------------------------------------------------
$molecule
0 1
C           -4.48213152600000        0.38993902930000        0.12434726530000
C           -3.30533660560000        0.71347341830000       -0.39214287560000
C           -2.05935721280000       -0.00934248170000       -0.12292904070000
C           -2.08639553960000       -1.39585403000000        0.00076223060000
C           -0.92613695400000       -2.10652193450000        0.23872134310000
C            0.27298161030000       -1.43540284910000        0.36725871440000
C            0.32568211240000       -0.04598502380000        0.25435612610000
C            1.61231688970000        0.63003843730000        0.44915978390000
C            2.77551021980000        0.18969871540000        0.00359180880000
F            2.99359143560000       -0.88862269320000       -0.74086417770000
F            3.93675008770000        0.80551247550000        0.22827932300000
C           -0.84300680130000        0.67870902730000       -0.00453391620000
C           -0.82979105820000        2.17023909390000       -0.17309314670000
H           -5.37501793490000        0.94389079130000       -0.11048354900000
H           -4.59711127700000       -0.42759693340000        0.81655744310000
H           -3.23271529200000        1.56370271690000       -1.05708017750000
H           -3.02515022670000       -1.91614978530000       -0.11409466820000
H           -0.95536475900000       -3.18204769460000        0.32647326230000
H            1.17737814040000       -1.98649681730000        0.57268011400000
H            1.63983366900000        1.54454693600000        1.02176394480000
H            0.15700488260000        2.59168834320000       -0.01613074740000
H           -1.52627973610000        2.63649237790000        0.52259403650000
H           -1.14165247350000        2.43228301820000       -1.18431348610000
$end

$rem
BASIS = 6-31G*
GUI = 2
METHOD = B3LYP
PRINT_ORBITALS false
MOLDEN_FORMAT false
$end
--------------------------------------------------------------
 ----------------------------------------------------------------
             Standard Nuclear Orientation (Angstroms)
    I     Atom           X                Y                Z
 ----------------------------------------------------------------
    1      C      -4.3588897138     0.3300786788     0.1472684025
    2      C      -3.1866366908     0.6807159001    -0.3618084487
    3      C      -1.9342632554    -0.0418619249    -0.1233852397
    4      C      -1.9505551223    -1.4320728571    -0.0492703672
    5      C      -0.7841168747    -2.1420388520     0.1586803379
    6      C       0.4105276730    -1.4669363823     0.3065622981
    7      C       0.4525034222    -0.0740135813     0.2432350723
    8      C       1.7348956262     0.6042801289     0.4571815915
    9      C       2.8994789316     0.1889156272    -0.0082930801
   10      F       3.1224742563    -0.8604352614    -0.7916748456
   11      F       4.0570474844     0.8050278320     0.2338430254
   12      C      -0.7225539726     0.6506538896     0.0149009439
   13      C      -0.7210431524     2.1473129515    -0.1002432244
   14      H      -5.2567951012     0.8853337779    -0.0641834720
   15      H      -4.4649989103    -0.5125191302     0.8102239774
   16      H      -3.1230144346     1.5546915733    -0.9961774754
   17      H      -2.8859030688    -1.9549819073    -0.1790797923
   18      H      -0.8050417806    -3.2202034146     0.2080123641
   19      H       1.3198014906    -2.0181977652     0.4886820643
   20      H       1.7579971524     1.4979185939     1.0620246337
   21      H       0.2632464204     2.5702980653     0.0679249169
   22      H      -1.4181077598     2.5831464267     0.6143331362
   23      H      -1.0389609011     2.4429791723    -1.1002436876
 ----------------------------------------------------------------
 Molecular Point Group                 C1    NOp =  1
 Largest Abelian Subgroup              C1    NOp =  1
 Nuclear Repulsion Energy =         742.35170019 hartrees
 There are       47 alpha and       47 beta electrons
 Requested basis set is 6-31G(d)
 There are 72 shells and 215 basis functions

 Total QAlloc Memory Limit   8000 MB
 Mega-Array Size       188 MB
 MEM_STATIC part       192 MB
 A cutoff of  1.0D-08 yielded   1817 shell pairs
 There are     16949 function pairs
 Smallest overlap matrix eigenvalue = 3.28E-04

 Scale SEOQF with 1.000000e-02/1.000000e-01/1.000000e+00

 Standard Electronic Orientation quadrupole field applied
 Nucleus-field energy     =    -0.0000000027 hartrees
 Guess from superposition of atomic densities
 Warning:  Energy on first SCF cycle will be non-variational
 SAD guess density has 94.000000 electrons

 -----------------------------------------------------------------------
  General SCF calculation program by
  Eric Jon Sundstrom, Paul Horn, Yuezhi Mao, Dmitri Zuev, Alec White,
  David Stuck, Shaama M.S., Shane Yost, Joonho Lee, David Small,
  Daniel Levine, Susi Lehtola, Hugh Burton, Evgeny Epifanovsky,
  Bang C. Huynh
 -----------------------------------------------------------------------
 Exchange:     0.2000 Hartree-Fock + 0.0800 Slater + 0.7200 B88
 Correlation:  0.1900 VWN1RPA + 0.8100 LYP
 Using SG-1 standard quadrature grid
 A restricted SCF calculation will be
 performed using DIIS
 SCF converges when DIIS error is below 1.0e-05
 ---------------------------------------
  Cycle       Energy         DIIS error
 ---------------------------------------
    1    -627.7003764522      5.41e-02  
    2    -624.5941091958      6.18e-03  
    3    -624.4483410988      7.97e-03  
    4    -624.8107295883      1.51e-03  
    5    -624.8232118046      4.59e-04  
    6    -624.8240586274      2.49e-04  
    7    -624.8244341002      5.24e-05  
    8    -624.8244498381      1.65e-05  
    9    -624.8244518992      4.80e-06  Convergence criterion met
 ---------------------------------------
 SCF time:   CPU 49.99s  wall 57.00s 
 SCF   energy in the final basis set =     -624.8244518992
 Total energy in the final basis set =     -624.8244518992
 
 --------------------------------------------------------------
 
                    Orbital Energies (a.u.)
 --------------------------------------------------------------
 
 Alpha MOs
 -- Occupied --
-24.7374 -24.7312 -10.3527 -10.2006 -10.1987 -10.1969 -10.1917 -10.1902
-10.1845 -10.1838 -10.1831 -10.1829 -10.1811  -1.2800  -1.2198  -0.8719
 -0.8135  -0.7866  -0.7660  -0.7219  -0.6884  -0.6424  -0.6205  -0.5887
 -0.5669  -0.5622  -0.5170  -0.5146  -0.4961  -0.4793  -0.4578  -0.4386
 -0.4367  -0.4327  -0.4298  -0.4159  -0.4111  -0.4052  -0.3944  -0.3738
 -0.3593  -0.3424  -0.3348  -0.2988  -0.2741  -0.2302  -0.2221
 -- Virtual --
 -0.0270  -0.0115   0.0397   0.0594   0.0953   0.1070   0.1199   0.1407
  0.1474   0.1501   0.1569   0.1709   0.1813   0.1942   0.2010   0.2237
  0.2286   0.2439   0.2992   0.3113   0.3155   0.3467   0.3590   0.3807
  0.4004   0.4265   0.4789   0.4953   0.5049   0.5105   0.5339   0.5364
  0.5493   0.5555   0.5643   0.5747   0.5855   0.5957   0.6008   0.6101
  0.6158   0.6205   0.6356   0.6430   0.6652   0.6792   0.6964   0.7165
  0.7283   0.7510   0.7773   0.7900   0.8196   0.8324   0.8355   0.8576
  0.8631   0.8702   0.8915   0.8980   0.9250   0.9425   0.9533   0.9604
  0.9772   0.9868   0.9958   1.0088   1.0258   1.0733   1.0812   1.1091
  1.1305   1.1599   1.1726   1.1912   1.2065   1.2273   1.2372   1.2471
  1.2629   1.3076   1.3224   1.3530   1.3887   1.4034   1.4184   1.4438
  1.4516   1.4687   1.4769   1.4947   1.5250   1.5459   1.5824   1.6267
  1.6787   1.6891   1.7266   1.7700   1.7774   1.7917   1.8139   1.8209
  1.8416   1.8445   1.8575   1.9106   1.9219   1.9275   1.9402   1.9753
  1.9793   2.0045   2.0116   2.0326   2.0413   2.0534   2.0841   2.0972
  2.1316   2.1658   2.1917   2.1980   2.2203   2.2538   2.2598   2.2656
  2.2866   2.3226   2.3537   2.3637   2.3987   2.4460   2.4579   2.4869
  2.5224   2.5306   2.5820   2.6346   2.6693   2.6746   2.6977   2.7247
  2.7516   2.8084   2.8231   2.8950   2.9450   3.0202   3.0274   3.1265
  3.1573   3.2829   3.4714   4.0901   4.1045   4.1192   4.1240   4.1432
  4.2465   4.2693   4.3135   4.4248   4.4737   4.7522   4.7892   5.2254
 --------------------------------------------------------------
 
          Ground-State Mulliken Net Atomic Charges

     Atom                 Charge (a.u.)
  ----------------------------------------
      1 C                    -0.336323
      2 C                    -0.130214
      3 C                     0.095456
      4 C                    -0.177389
      5 C                    -0.134914
      6 C                    -0.171195
      7 C                     0.113376
      8 C                    -0.333032
      9 C                     0.556713
     10 F                    -0.237391
     11 F                    -0.249919
     12 C                     0.066032
     13 C                    -0.533377
     14 H                     0.142581
     15 H                     0.145572
     16 H                     0.133484
     17 H                     0.129100
     18 H                     0.128693
     19 H                     0.131395
     20 H                     0.168758
     21 H                     0.155748
     22 H                     0.169422
     23 H                     0.167424
  ----------------------------------------
  Sum of atomic charges =     0.000000

 -----------------------------------------------------------------
                    Cartesian Multipole Moments
 -----------------------------------------------------------------
    Charge (ESU x 10^10)
                 0.0000
    Dipole Moment (Debye)
         X      -1.1606      Y       0.5583      Z       0.3034
       Tot       1.3231
    Quadrupole Moments (Debye-Ang)
        XX     -74.3874     XY      -0.2650     YY     -68.5978
        XZ       1.2766     YZ      -1.3040     ZZ     -75.6624
    Octopole Moments (Debye-Ang^2)
       XXX      16.1667    XXY      -1.5951    XYY      14.2461
       YYY      -6.9572    XXZ       1.5042    XYZ       3.1865
       YYZ      -0.2861    XZZ      22.5041    YZZ       4.5113
       ZZZ      -6.2194
    Hexadecapole Moments (Debye-Ang^3)
      XXXX   -2670.3389   XXXY     -20.5941   XXYY    -557.1821
      XYYY      10.7067   YYYY    -717.5492   XXXZ     -21.4932
      XXYZ     -17.8020   XYYZ       4.6150   YYYZ       4.6729
      XXZZ    -479.8358   XYZZ       0.2413   YYZZ    -148.0350
      XZZZ     -13.5314   YZZZ       7.1274   ZZZZ    -130.2399
 -----------------------------------------------------------------
 Total job time:  59.46s(wall), 50.41s(cpu) 
 Fri Aug 12 12:44:22 2022

        *************************************************************
        *                                                           *
        *  Thank you very much for using Q-Chem.  Have a nice day.  *
        *                                                           *
        *************************************************************


