
Running Job 1 of 1 fragments/C127/conf-4/spe_input.inp
qchem fragments/C127/conf-4/spe_input.inp_364280.0 /gpfs/fs0/scratch/a/aspuru/rhickman/descriptor_computation/qchem364280/ 0
/scinet/niagara/software/commercial/qc52/exe/qcprog.exe_s fragments/C127/conf-4/spe_input.inp_364280.0 /gpfs/fs0/scratch/a/aspuru/rhickman/descriptor_computation/qchem364280/
                  Welcome to Q-Chem
     A Quantum Leap Into The Future Of Chemistry


 Q-Chem 5.2, Q-Chem, Inc., Pleasanton, CA (2019)

 License issued to: SRG Alan Aspuru-Guzik, University of Toronto

 Yihan Shao,  Zhengting Gan,  E. Epifanovsky,  A. T. B. Gilbert,  M. Wormit,  
 J. Kussmann,  A. W. Lange,  A. Behn,  Jia Deng,  Xintian Feng,  D. Ghosh,  
 M. Goldey,  P. R. Horn,  L. D. Jacobson,  I. Kaliman,  T. Kus,  A. Landau,  
 Jie Liu,  E. I. Proynov,  R. M. Richard,  R. P. Steele,  E. J. Sundstrom,  
 H. L. Woodcock III,  P. M. Zimmerman,  D. Zuev,  B. Albrecht,  E. Alguire,  
 S. A. Baeppler,  D. Barton,  Z. Benda,  Y. A. Bernard,  E. J. Berquist,  
 K. B. Bravaya,  H. Burton,  D. Casanova,  Chun-Min Chang,  Yunqing Chen,  
 A. Chien,  K. D. Closser,  M. P. Coons,  S. Coriani,  S. Dasgupta,  
 A. L. Dempwolff,  M. Diedenhofen,  Hainam Do,  R. G. Edgar,  Po-Tung Fang,  
 S. Faraji,  S. Fatehi,  Qingguo Feng,  K. D. Fenk,  J. Fosso-Tande,  
 J. Gayvert,  Qinghui Ge,  A. Ghysels,  G. Gidofalvi,  J. Gomes,  
 J. Gonthier,  A. Gunina,  D. Hait,  M. W. D. Hanson-Heine,  
 P. H. P. Harbach,  A. W. Hauser,  M. F. Herbst,  J. E. Herr,  
 E. G. Hohenstein,  Z. C. Holden,  Kerwin Hui,  B. C. Huynh,  T.-C. Jagau,  
 Hyunjun Ji,  B. Kaduk,  K. Khistyaev,  Jaehoon Kim,  P. Klunzinger,  K. Koh,  
 D. Kosenkov,  L. Koulias,  T. Kowalczyk,  C. M. Krauter,  A. Kunitsa,  
 Ka Un Lao,  A. Laurent,  K. V. Lawler,  Joonho Lee,  D. Lefrancois,  
 S. Lehtola,  D. S. Levine,  Yi-Pei Li,  You-Sheng Lin,  Fenglai Liu,  
 E. Livshits,  A. Luenser,  P. Manohar,  E. Mansoor,  S. F. Manzer,  
 Shan-Ping Mao,  Yuezhi Mao,  N. Mardirossian,  A. V. Marenich,  
 T. Markovich,  L. A. Martinez-Martinez,  S. A. Maurer,  N. J. Mayhall,  
 S. C. McKenzie,  J.-M. Mewes,  P. Morgante,  A. F. Morrison,  
 J. W. Mullinax,  K. Nanda,  T. S. Nguyen-Beck,  R. Olivares-Amaya,  
 J. A. Parkhill,  Zheng Pei,  T. M. Perrine,  F. Plasser,  P. Pokhilko,  
 S. Prager,  A. Prociuk,  E. Ramos,  D. R. Rehn,  F. Rob,  M. Scheurer,  
 M. Schneider,  N. Sergueev,  S. M. Sharada,  S. Sharma,  D. W. Small,  
 T. Stauch,  T. Stein,  Yu-Chuan Su,  A. J. W. Thom,  A. Tkatchenko,  
 T. Tsuchimochi,  N. M. Tubman,  L. Vogt,  M. L. Vidal,  O. Vydrov,  
 M. A. Watson,  J. Wenzel,  M. de Wergifosse,  T. A. Wesolowski,  A. White,  
 J. Witte,  A. Yamada,  Jun Yang,  K. Yao,  S. Yeganeh,  S. R. Yost,  
 Zhi-Qiang You,  A. Zech,  Igor Ying Zhang,  Xing Zhang,  Yan Zhao,  
 Ying Zhu,  B. R. Brooks,  G. K. L. Chan,  C. J. Cramer,  M. S. Gordon,  
 W. J. Hehre,  A. Klamt,  M. W. Schmidt,  C. D. Sherrill,  D. G. Truhlar,  
 A. Aspuru-Guzik,  R. Baer,  A. T. Bell,  N. A. Besley,  Jeng-Da Chai,  
 A. E. DePrince, III,  R. A. DiStasio Jr.,  A. Dreuw,  B. D. Dunietz,  
 T. R. Furlani,  Chao-Ping Hsu,  Yousung Jung,  Jing Kong,  D. S. Lambrecht,  
 WanZhen Liang,  C. Ochsenfeld,  V. A. Rassolov,  L. V. Slipchenko,  
 J. E. Subotnik,  T. Van Voorhis,  J. M. Herbert,  A. I. Krylov,  
 P. M. W. Gill,  M. Head-Gordon

 Contributors to earlier versions of Q-Chem not listed above: 
 R. D. Adamson,  B. Austin,  J. Baker,  G. J. O. Beran,  K. Brandhorst,  
 S. T. Brown,  E. F. C. Byrd,  A. K. Chakraborty,  C.-L. Cheng,  
 Siu Hung Chien,  D. M. Chipman,  D. L. Crittenden,  H. Dachsel,  
 R. J. Doerksen,  A. D. Dutoi,  L. Fusti-Molnar,  W. A. Goddard III,  
 A. Golubeva-Zadorozhnaya,  S. R. Gwaltney,  G. Hawkins,  A. Heyden,  
 S. Hirata,  G. Kedziora,  F. J. Keil,  C. Kelley,  Jihan Kim,  R. A. King,  
 R. Z. Khaliullin,  P. P. Korambath,  W. Kurlancheek,  A. M. Lee,  M. S. Lee,  
 S. V. Levchenko,  Ching Yeh Lin,  D. Liotard,  R. C. Lochan,  I. Lotan,  
 P. E. Maslen,  N. Nair,  D. P. O'Neill,  D. Neuhauser,  E. Neuscamman,  
 C. M. Oana,  R. Olson,  B. Peters,  R. Peverati,  P. A. Pieniazek,  
 Y. M. Rhee,  J. Ritchie,  M. A. Rohrdanz,  E. Rosta,  N. J. Russ,  
 H. F. Schaefer III,  N. E. Schultz,  N. Shenvi,  A. C. Simmonett,  A. Sodt,  
 D. Stuck,  K. S. Thanthiriwatte,  V. Vanovschi,  Tao Wang,  A. Warshel,  
 C. F. Williams,  Q. Wu,  X. Xu,  W. Zhang

 Please cite Q-Chem as follows:
 Y. Shao et al., Mol. Phys. 113, 184-215 (2015)
 DOI: 10.1080/00268976.2014.952696

 Q-Chem 5.2.1 for Intel X86 EM64T Linux

 Parts of Q-Chem use Armadillo 8.300.2 (Tropical Shenanigans).
 http://arma.sourceforge.net/

 Q-Chem begins on Tue Feb  8 16:52:24 2022  

Host: 
0

     Scratch files written to /gpfs/fs0/scratch/a/aspuru/rhickman/descriptor_computation/qchem364280//
 Jul1719 |scratch|qcdevops|jenkins|workspace|build_RNUM -1
Processing $rem in /scinet/niagara/software/commercial/qc52/config/preferences:
	 MEM_TOTAL  4000 
NAlpha2: 92
NElect   92
Mult     1

Checking the input file for inconsistencies... 	...done.

--------------------------------------------------------------
User input:
--------------------------------------------------------------
$molecule
0 1
C        -2.35138499180000   -1.85894657580000   -0.68003970170000
C        -2.42070174230000   -0.70285116030000   -0.03356832910000
C        -1.36385108760000    0.30509238820000    0.02907747700000
C        -1.72592417020000    1.65316725180000    0.08692301060000
N        -0.85983750530000    2.64470839010000    0.14305273270000
C         0.42377122870000    2.35252725130000    0.13289982320000
C         0.93746213010000    1.05201820450000    0.06097214460000
C         2.39242327920000    0.89037602070000    0.08295348930000
C         3.10049977400000    0.06905063090000   -0.67804174040000
C         0.00825282500000    0.00425166980000    0.02769753430000
C         0.45200118710000   -1.42717949880000    0.11747275770000
O         1.03562055760000   -2.02618968140000   -0.73826744320000
O         0.14778247130000   -2.01897819320000    1.28954037420000
H        -3.18942311800000   -2.53429658660000   -0.70250007260000
H        -1.47718979740000   -2.17019238450000   -1.22483742050000
H        -3.34454705020000   -0.41287146020000    0.45251364800000
H        -2.76971643940000    1.93834414380000    0.09306035210000
H         1.09763148180000    3.19755898880000    0.18542587440000
H         2.89978577940000    1.58112642990000    0.74705625280000
H         2.64528960580000   -0.60352799040000   -1.38281195120000
H         4.17557834780000    0.04890976840000   -0.61680210760000
H        -0.34975294530000   -1.44108709480000    1.88286680770000
$end

$rem
BASIS = 6-31G*
GUI = 2
METHOD = B3LYP
PRINT_ORBITALS false
MOLDEN_FORMAT false
--------------------------------------------------------------
 ----------------------------------------------------------------
             Standard Nuclear Orientation (Angstroms)
    I     Atom           X                Y                Z
 ----------------------------------------------------------------
    1      C       2.8773506539    -0.8168186741     0.6930173472
    2      C       2.4979107077     0.3068673645     0.0991809462
    3      C       1.1304924570     0.8197134695     0.0362190481
    4      C       0.9319802871     2.2025195435     0.0499719031
    5      N      -0.2538765866     2.7749818214     0.0005664242
    6      C      -1.3177357047     2.0014300618    -0.0537081860
    7      C      -1.2775591295     0.6018777127    -0.0575525386
    8      C      -2.5496860832    -0.1175012366    -0.1453606326
    9      C      -2.8915068704    -1.1914305945     0.5509839242
   10      C      -0.0110502951     0.0038894838    -0.0307701915
   11      C       0.1484070506    -1.4794628588    -0.1987183167
   12      O      -0.1688367066    -2.3055922508     0.6066279977
   13      O       0.6857407571    -1.8388108455    -1.3813673482
   14      H       3.9132948161    -1.1082751761     0.7209960279
   15      H       2.1860163648    -1.4761077481     1.1882855203
   16      H       3.2420320484     0.9629525007    -0.3363529700
   17      H       1.7782467373     2.8751044203     0.0982265035
   18      H      -2.2692558623     2.5148332483    -0.0978876144
   19      H      -3.2747121449     0.3532592219    -0.7998123997
   20      H      -2.2223994886    -1.6682502893     1.2446824461
   21      H      -3.8697647145    -1.6293875224     0.4453657119
   22      H       0.9268275057    -1.0802822653    -1.9291332122
 ----------------------------------------------------------------
 Molecular Point Group                 C1    NOp =  1
 Largest Abelian Subgroup              C1    NOp =  1
 Nuclear Repulsion Energy =         757.46750524 hartrees
 There are       46 alpha and       46 beta electrons
 Requested basis set is 6-31G(d)
 There are 70 shells and 213 basis functions

 Total QAlloc Memory Limit   4000 MB
 Mega-Array Size       188 MB
 MEM_STATIC part       192 MB
 A cutoff of  1.0D-08 yielded   1825 shell pairs
 There are     18665 function pairs
 Smallest overlap matrix eigenvalue = 4.97E-04

 Scale SEOQF with 1.000000e-01/1.000000e-01/1.000000e-01

 Standard Electronic Orientation quadrupole field applied
 Nucleus-field energy     =     0.0000000235 hartrees
 Guess from superposition of atomic densities
 Warning:  Energy on first SCF cycle will be non-variational
 SAD guess density has 92.000000 electrons

 -----------------------------------------------------------------------
  General SCF calculation program by
  Eric Jon Sundstrom, Paul Horn, Yuezhi Mao, Dmitri Zuev, Alec White,
  David Stuck, Shaama M.S., Shane Yost, Joonho Lee, David Small,
  Daniel Levine, Susi Lehtola, Hugh Burton, Evgeny Epifanovsky,
  Bang C. Huynh
 -----------------------------------------------------------------------
 Exchange:     0.2000 Hartree-Fock + 0.0800 Slater + 0.7200 B88
 Correlation:  0.1900 VWN1RPA + 0.8100 LYP
 Using SG-1 standard quadrature grid
 A restricted SCF calculation will be
 performed using DIIS
 SCF converges when DIIS error is below 1.0e-05
 ---------------------------------------
  Cycle       Energy         DIIS error
 ---------------------------------------
    1    -594.6555395306      5.64e-02  
    2    -591.3953530996      6.71e-03  
    3    -591.0832952289      1.09e-02  
    4    -591.5913887121      2.68e-03  
    5    -591.6259891847      6.37e-04  
    6    -591.6274499786      2.76e-04  
    7    -591.6278075976      4.80e-05  
    8    -591.6278159150      2.46e-05  
    9    -591.6278193055      5.65e-06  Convergence criterion met
 ---------------------------------------
 SCF time:   CPU 33.79s  wall 34.00s 
 SCF   energy in the final basis set =     -591.6278193055
 Total energy in the final basis set =     -591.6278193055
 
 --------------------------------------------------------------
 
                    Orbital Energies (a.u.)
 --------------------------------------------------------------
 
 Alpha MOs
 -- Occupied --
-19.2026 -19.1466 -14.3396 -10.3326 -10.2316 -10.2312 -10.2307 -10.2237
-10.2230 -10.2091 -10.2002 -10.1977 -10.1872  -1.1144  -1.0341  -0.9639
 -0.8516  -0.8259  -0.7678  -0.7491  -0.6868  -0.6553  -0.6328  -0.5990
 -0.5736  -0.5535  -0.5199  -0.4981  -0.4711  -0.4677  -0.4597  -0.4500
 -0.4414  -0.4272  -0.4167  -0.4028  -0.3950  -0.3784  -0.3588  -0.3335
 -0.3177  -0.3164  -0.2892  -0.2723  -0.2539  -0.2431
 -- Virtual --
 -0.0560  -0.0462  -0.0019   0.0192   0.0434   0.0683   0.0996   0.1178
  0.1314   0.1456   0.1526   0.1605   0.1759   0.1795   0.2031   0.2272
  0.2484   0.2922   0.3004   0.3131   0.3271   0.3466   0.3593   0.3670
  0.3897   0.4094   0.4522   0.4624   0.4886   0.5033   0.5058   0.5153
  0.5231   0.5422   0.5511   0.5746   0.5902   0.5978   0.6047   0.6138
  0.6309   0.6373   0.6490   0.6518   0.6678   0.6829   0.6945   0.7088
  0.7163   0.7588   0.7749   0.7856   0.8006   0.8170   0.8423   0.8522
  0.8565   0.8598   0.8668   0.8677   0.8838   0.9024   0.9141   0.9324
  0.9545   0.9587   0.9839   0.9980   1.0072   1.0282   1.0319   1.0756
  1.0918   1.1076   1.1245   1.1327   1.1573   1.1752   1.1862   1.1926
  1.2163   1.2631   1.2888   1.2961   1.3468   1.3719   1.4172   1.4643
  1.4768   1.4923   1.4991   1.5133   1.5143   1.5343   1.5776   1.5926
  1.6475   1.6544   1.7062   1.7108   1.7409   1.7664   1.7937   1.8019
  1.8173   1.8450   1.8539   1.8666   1.8862   1.9135   1.9208   1.9411
  1.9616   1.9917   2.0004   2.0313   2.0942   2.1003   2.1323   2.1379
  2.1651   2.1915   2.2301   2.2434   2.2778   2.2900   2.3075   2.3463
  2.3507   2.3648   2.4106   2.4189   2.4586   2.4842   2.4934   2.5560
  2.5879   2.6204   2.6310   2.6584   2.6958   2.7134   2.7455   2.7742
  2.8100   2.8394   2.8993   2.9065   2.9513   2.9941   3.0296   3.0968
  3.2181   3.4366   3.9215   4.0706   4.0965   4.1094   4.1447   4.1799
  4.2118   4.2508   4.2841   4.3358   4.4198   4.4791   4.7687
 --------------------------------------------------------------
 
          Ground-State Mulliken Net Atomic Charges

     Atom                 Charge (a.u.)
  ----------------------------------------
      1 C                    -0.335142
      2 C                    -0.161357
      3 C                     0.101917
      4 C                    -0.012826
      5 N                    -0.395350
      6 C                    -0.009189
      7 C                     0.106863
      8 C                    -0.161315
      9 C                    -0.323274
     10 C                    -0.048650
     11 C                     0.537786
     12 O                    -0.433907
     13 O                    -0.551091
     14 H                     0.155590
     15 H                     0.185907
     16 H                     0.144129
     17 H                     0.147591
     18 H                     0.149549
     19 H                     0.142213
     20 H                     0.193655
     21 H                     0.147792
     22 H                     0.419109
  ----------------------------------------
  Sum of atomic charges =     0.000000

 -----------------------------------------------------------------
                    Cartesian Multipole Moments
 -----------------------------------------------------------------
    Charge (ESU x 10^10)
                 0.0000
    Dipole Moment (Debye)
         X       0.8343      Y       1.1658      Z      -1.5938
       Tot       2.1437
    Quadrupole Moments (Debye-Ang)
        XX     -62.3358     XY       1.3246     YY     -88.3944
        XZ      -0.1342     YZ      -1.1399     ZZ     -72.8083
    Octopole Moments (Debye-Ang^2)
       XXX       3.6751    XXY      -4.2459    XYY       3.3089
       YYY     -16.7773    XXZ      -4.2181    XYZ      -0.6330
       YYZ       1.9301    XZZ       3.7562    YZZ      -6.0185
       ZZZ     -13.3210
    Hexadecapole Moments (Debye-Ang^3)
      XXXX   -1314.5743   XXXY       1.3131   XXYY    -389.6534
      XYYY      19.7677   YYYY   -1321.6808   XXXZ       7.9033
      XXYZ     -18.5649   XYYZ       2.8406   YYYZ      -0.8009
      XXZZ    -282.0811   XYZZ      -4.7846   YYZZ    -236.8117
      XZZZ     -16.8192   YZZZ       6.5582   ZZZZ    -183.1138
 -----------------------------------------------------------------
Archival summary:
1\1\nia2015.scinet.local\SP\ProcedureUnspecified\6-31G*\21109\rhickman\TueFeb816:52:582022TueFeb816:52:582022\0\\#,ProcedureUnspecified,6-31G*,\\0,1\C\C,1,1.40084\C,2,1.40013,1,116.91\H,3,1.08209,2,119.959,1,178.517,0\N,3,1.31648,2,124.352,1,-1.44629,0\C,5,1.31773,3,118.263,2,0.255146,0\H,6,1.08207,5,115.814,3,-179.727,0\C,6,1.39705,5,123.884,3,0.595787,0\C,8,1.46178,6,118.669,5,-179.845,0\H,9,1.08345,8,114.375,6,-29.4637,0\C,9,1.32638,8,125.74,6,146.601,0\H,11,1.07606,9,122.774,8,0.668476,0\H,11,1.07653,9,121.084,8,-178.024,0\C,2,1.46408,1,125.238,3,177.296,0\H,14,1.08424,2,113.821,1,-139.531,0\C,14,1.32479,2,126.226,1,45.2575,0\H,16,1.0753,14,122.548,2,-2.33734,0\H,16,1.07701,14,120.828,2,177.51,0\C,1,1.50132,2,121.041,3,-172.563,0\O,19,1.19654,1,125.36,2,-70.7362,0\O,19,1.34778,1,113.824,2,108.538,0\H,21,0.966197,19,112.807,1,2.70361,0\\\@

 Total job time:  34.09s(wall), 33.95s(cpu) 
 Tue Feb  8 16:52:58 2022

        *************************************************************
        *                                                           *
        *  Thank you very much for using Q-Chem.  Have a nice day.  *
        *                                                           *
        *************************************************************


