
Running Job 1 of 1 fragments/C091/conf-3/spe_input.inp
qchem fragments/C091/conf-3/spe_input.inp_142032.0 /gpfs/fs0/scratch/a/aspuru/rhickman/descriptor_computation/qchem142032/ 0
/scinet/niagara/software/commercial/qc52/exe/qcprog.exe_s fragments/C091/conf-3/spe_input.inp_142032.0 /gpfs/fs0/scratch/a/aspuru/rhickman/descriptor_computation/qchem142032/
                  Welcome to Q-Chem
     A Quantum Leap Into The Future Of Chemistry


 Q-Chem 5.2, Q-Chem, Inc., Pleasanton, CA (2019)

 License issued to: SRG Alan Aspuru-Guzik, University of Toronto

 Yihan Shao,  Zhengting Gan,  E. Epifanovsky,  A. T. B. Gilbert,  M. Wormit,  
 J. Kussmann,  A. W. Lange,  A. Behn,  Jia Deng,  Xintian Feng,  D. Ghosh,  
 M. Goldey,  P. R. Horn,  L. D. Jacobson,  I. Kaliman,  T. Kus,  A. Landau,  
 Jie Liu,  E. I. Proynov,  R. M. Richard,  R. P. Steele,  E. J. Sundstrom,  
 H. L. Woodcock III,  P. M. Zimmerman,  D. Zuev,  B. Albrecht,  E. Alguire,  
 S. A. Baeppler,  D. Barton,  Z. Benda,  Y. A. Bernard,  E. J. Berquist,  
 K. B. Bravaya,  H. Burton,  D. Casanova,  Chun-Min Chang,  Yunqing Chen,  
 A. Chien,  K. D. Closser,  M. P. Coons,  S. Coriani,  S. Dasgupta,  
 A. L. Dempwolff,  M. Diedenhofen,  Hainam Do,  R. G. Edgar,  Po-Tung Fang,  
 S. Faraji,  S. Fatehi,  Qingguo Feng,  K. D. Fenk,  J. Fosso-Tande,  
 J. Gayvert,  Qinghui Ge,  A. Ghysels,  G. Gidofalvi,  J. Gomes,  
 J. Gonthier,  A. Gunina,  D. Hait,  M. W. D. Hanson-Heine,  
 P. H. P. Harbach,  A. W. Hauser,  M. F. Herbst,  J. E. Herr,  
 E. G. Hohenstein,  Z. C. Holden,  Kerwin Hui,  B. C. Huynh,  T.-C. Jagau,  
 Hyunjun Ji,  B. Kaduk,  K. Khistyaev,  Jaehoon Kim,  P. Klunzinger,  K. Koh,  
 D. Kosenkov,  L. Koulias,  T. Kowalczyk,  C. M. Krauter,  A. Kunitsa,  
 Ka Un Lao,  A. Laurent,  K. V. Lawler,  Joonho Lee,  D. Lefrancois,  
 S. Lehtola,  D. S. Levine,  Yi-Pei Li,  You-Sheng Lin,  Fenglai Liu,  
 E. Livshits,  A. Luenser,  P. Manohar,  E. Mansoor,  S. F. Manzer,  
 Shan-Ping Mao,  Yuezhi Mao,  N. Mardirossian,  A. V. Marenich,  
 T. Markovich,  L. A. Martinez-Martinez,  S. A. Maurer,  N. J. Mayhall,  
 S. C. McKenzie,  J.-M. Mewes,  P. Morgante,  A. F. Morrison,  
 J. W. Mullinax,  K. Nanda,  T. S. Nguyen-Beck,  R. Olivares-Amaya,  
 J. A. Parkhill,  Zheng Pei,  T. M. Perrine,  F. Plasser,  P. Pokhilko,  
 S. Prager,  A. Prociuk,  E. Ramos,  D. R. Rehn,  F. Rob,  M. Scheurer,  
 M. Schneider,  N. Sergueev,  S. M. Sharada,  S. Sharma,  D. W. Small,  
 T. Stauch,  T. Stein,  Yu-Chuan Su,  A. J. W. Thom,  A. Tkatchenko,  
 T. Tsuchimochi,  N. M. Tubman,  L. Vogt,  M. L. Vidal,  O. Vydrov,  
 M. A. Watson,  J. Wenzel,  M. de Wergifosse,  T. A. Wesolowski,  A. White,  
 J. Witte,  A. Yamada,  Jun Yang,  K. Yao,  S. Yeganeh,  S. R. Yost,  
 Zhi-Qiang You,  A. Zech,  Igor Ying Zhang,  Xing Zhang,  Yan Zhao,  
 Ying Zhu,  B. R. Brooks,  G. K. L. Chan,  C. J. Cramer,  M. S. Gordon,  
 W. J. Hehre,  A. Klamt,  M. W. Schmidt,  C. D. Sherrill,  D. G. Truhlar,  
 A. Aspuru-Guzik,  R. Baer,  A. T. Bell,  N. A. Besley,  Jeng-Da Chai,  
 A. E. DePrince, III,  R. A. DiStasio Jr.,  A. Dreuw,  B. D. Dunietz,  
 T. R. Furlani,  Chao-Ping Hsu,  Yousung Jung,  Jing Kong,  D. S. Lambrecht,  
 WanZhen Liang,  C. Ochsenfeld,  V. A. Rassolov,  L. V. Slipchenko,  
 J. E. Subotnik,  T. Van Voorhis,  J. M. Herbert,  A. I. Krylov,  
 P. M. W. Gill,  M. Head-Gordon

 Contributors to earlier versions of Q-Chem not listed above: 
 R. D. Adamson,  B. Austin,  J. Baker,  G. J. O. Beran,  K. Brandhorst,  
 S. T. Brown,  E. F. C. Byrd,  A. K. Chakraborty,  C.-L. Cheng,  
 Siu Hung Chien,  D. M. Chipman,  D. L. Crittenden,  H. Dachsel,  
 R. J. Doerksen,  A. D. Dutoi,  L. Fusti-Molnar,  W. A. Goddard III,  
 A. Golubeva-Zadorozhnaya,  S. R. Gwaltney,  G. Hawkins,  A. Heyden,  
 S. Hirata,  G. Kedziora,  F. J. Keil,  C. Kelley,  Jihan Kim,  R. A. King,  
 R. Z. Khaliullin,  P. P. Korambath,  W. Kurlancheek,  A. M. Lee,  M. S. Lee,  
 S. V. Levchenko,  Ching Yeh Lin,  D. Liotard,  R. C. Lochan,  I. Lotan,  
 P. E. Maslen,  N. Nair,  D. P. O'Neill,  D. Neuhauser,  E. Neuscamman,  
 C. M. Oana,  R. Olson,  B. Peters,  R. Peverati,  P. A. Pieniazek,  
 Y. M. Rhee,  J. Ritchie,  M. A. Rohrdanz,  E. Rosta,  N. J. Russ,  
 H. F. Schaefer III,  N. E. Schultz,  N. Shenvi,  A. C. Simmonett,  A. Sodt,  
 D. Stuck,  K. S. Thanthiriwatte,  V. Vanovschi,  Tao Wang,  A. Warshel,  
 C. F. Williams,  Q. Wu,  X. Xu,  W. Zhang

 Please cite Q-Chem as follows:
 Y. Shao et al., Mol. Phys. 113, 184-215 (2015)
 DOI: 10.1080/00268976.2014.952696

 Q-Chem 5.2.1 for Intel X86 EM64T Linux

 Parts of Q-Chem use Armadillo 8.300.2 (Tropical Shenanigans).
 http://arma.sourceforge.net/

 Q-Chem begins on Mon Feb  7 17:15:39 2022  

Host: 
0

     Scratch files written to /gpfs/fs0/scratch/a/aspuru/rhickman/descriptor_computation/qchem142032//
 Jul1719 |scratch|qcdevops|jenkins|workspace|build_RNUM -1
Processing $rem in /scinet/niagara/software/commercial/qc52/config/preferences:
	 MEM_TOTAL  4000 
NAlpha2: 86
NElect   86
Mult     1

Checking the input file for inconsistencies... 	...done.

--------------------------------------------------------------
User input:
--------------------------------------------------------------
$molecule
0 1
C         4.08466669610000   -0.72780003190000    0.07672816590000
C         3.18980105490000    0.25212338480000    0.06209479130000
C         1.75194169050000    0.02266614750000   -0.00552522910000
C         0.86356122270000    1.08953205830000   -0.01726838390000
C        -0.51437526920000    0.86913803980000   -0.07608753800000
O        -1.24895012530000    2.00876368470000   -0.01705451960000
C        -2.65040337820000    1.99086805460000    0.12050272540000
C        -0.96704438660000   -0.45747976010000   -0.15031267700000
C        -2.35845197760000   -0.89839859090000   -0.29633625140000
C        -2.88689589100000   -1.89248034010000    0.40356566100000
C         0.02539310020000   -1.44666604390000   -0.11950173900000
N         1.31640000970000   -1.24059727610000   -0.04756503300000
H         5.14268095930000   -0.53562655060000    0.12640148860000
H         3.76438521160000   -1.75453575130000    0.03859697780000
H         3.49468990830000    1.28965003770000    0.09909339540000
H         1.21300394000000    2.10870066760000    0.03410781410000
H        -2.91671396230000    2.97316514060000    0.51253644830000
H        -2.98174564170000    1.21906174610000    0.81865749440000
H        -3.14421666320000    1.85312743540000   -0.84544958690000
H        -2.94553415970000   -0.41162847280000   -1.06369863280000
H        -2.33464922840000   -2.39571186920000    1.17966000070000
H        -3.89717005760000   -2.22567853830000    0.23856187120000
H        -0.27636721840000   -2.48483714780000   -0.18122898180000
$end

$rem
BASIS = 6-31G*
GUI = 2
METHOD = B3LYP
PRINT_ORBITALS false
MOLDEN_FORMAT false
--------------------------------------------------------------
 ----------------------------------------------------------------
             Standard Nuclear Orientation (Angstroms)
    I     Atom           X                Y                Z
 ----------------------------------------------------------------
    1      C       4.1645270523    -0.3137848388     0.0788450058
    2      C       3.1765565939     0.5722990768     0.0745762701
    3      C       1.7689081120     0.2018878877    -0.0027796925
    4      C       0.7787223772     1.1750748345    -0.0028576492
    5      C      -0.5702302539     0.8195139175    -0.0710150063
    6      O      -1.4148325390     1.8793400775     0.0014226746
    7      C      -2.8079358422     1.7199619650     0.1324771416
    8      C      -0.8882932905    -0.5443126416    -0.1666523926
    9      C      -2.2284269979    -1.1193109135    -0.3252904000
   10      C      -2.6573022797    -2.1714465662     0.3576376649
   11      C       0.1976380651    -1.4301421018    -0.1459101272
   12      N       1.4614817184    -1.0976839810    -0.0652324670
   13      H       5.1979876176    -0.0180110656     0.1360236905
   14      H       3.9482170890    -1.3666154799     0.0242730785
   15      H       3.3764790967     1.6343505374     0.1281052627
   16      H       1.0247628933     2.2230810208     0.0649765479
   17      H      -3.1719208005     2.6648775949     0.5376545531
   18      H      -3.0628242618     0.9086195605     0.8177859413
   19      H      -3.2827104555     1.5482539102    -0.8375709597
   20      H      -2.8587969199    -0.6819445071    -1.0880485850
   21      H      -2.0599807875    -2.6287895022     1.1287312041
   22      H      -3.6288723827    -2.6010461891     0.1832906530
   23      H       0.0009659768    -2.4921523502    -0.2241604007
 ----------------------------------------------------------------
 Molecular Point Group                 C1    NOp =  1
 Largest Abelian Subgroup              C1    NOp =  1
 Nuclear Repulsion Energy =         653.63593016 hartrees
 There are       43 alpha and       43 beta electrons
 Requested basis set is 6-31G(d)
 There are 70 shells and 202 basis functions

 Total QAlloc Memory Limit   4000 MB
 Mega-Array Size       188 MB
 MEM_STATIC part       192 MB
 A cutoff of  1.0D-08 yielded   1708 shell pairs
 There are     15675 function pairs
 Smallest overlap matrix eigenvalue = 5.60E-04

 Scale SEOQF with 1.000000e-01/1.000000e-01/1.000000e+00

 Standard Electronic Orientation quadrupole field applied
 Nucleus-field energy     =     0.0000000210 hartrees
 Guess from superposition of atomic densities
 Warning:  Energy on first SCF cycle will be non-variational
 SAD guess density has 86.000000 electrons

 -----------------------------------------------------------------------
  General SCF calculation program by
  Eric Jon Sundstrom, Paul Horn, Yuezhi Mao, Dmitri Zuev, Alec White,
  David Stuck, Shaama M.S., Shane Yost, Joonho Lee, David Small,
  Daniel Levine, Susi Lehtola, Hugh Burton, Evgeny Epifanovsky,
  Bang C. Huynh
 -----------------------------------------------------------------------
 Exchange:     0.2000 Hartree-Fock + 0.0800 Slater + 0.7200 B88
 Correlation:  0.1900 VWN1RPA + 0.8100 LYP
 Using SG-1 standard quadrature grid
 A restricted SCF calculation will be
 performed using DIIS
 SCF converges when DIIS error is below 1.0e-05
 ---------------------------------------
  Cycle       Energy         DIIS error
 ---------------------------------------
    1    -520.3329111690      5.74e-02  
    2    -517.4273649748      5.70e-03  
    3    -517.3917269578      6.40e-03  
    4    -517.5795774749      1.97e-03  
    5    -517.5991839377      4.37e-04  
    6    -517.6000458947      1.73e-04  
    7    -517.6001825486      3.88e-05  
    8    -517.6001877889      1.99e-05  
    9    -517.6001898212      2.56e-06  Convergence criterion met
 ---------------------------------------
 SCF time:   CPU 27.56s  wall 28.00s 
 SCF   energy in the final basis set =     -517.6001898212
 Total energy in the final basis set =     -517.6001898212
 
 --------------------------------------------------------------
 
                    Orbital Energies (a.u.)
 --------------------------------------------------------------
 
 Alpha MOs
 -- Occupied --
-19.1885 -14.3120 -10.2634 -10.2450 -10.2198 -10.2154 -10.1997 -10.1993
-10.1854 -10.1848 -10.1815 -10.1737  -1.0782  -0.9426  -0.8234  -0.7977
 -0.7770  -0.7226  -0.7147  -0.6405  -0.6251  -0.5801  -0.5666  -0.5289
 -0.5024  -0.4830  -0.4732  -0.4693  -0.4459  -0.4404  -0.4287  -0.4119
 -0.4033  -0.3921  -0.3642  -0.3548  -0.3511  -0.3375  -0.3043  -0.2762
 -0.2464  -0.2403  -0.2198
 -- Virtual --
 -0.0391  -0.0046   0.0148   0.0689   0.0959   0.1072   0.1274   0.1374
  0.1417   0.1473   0.1571   0.1624   0.1723   0.1851   0.1861   0.2121
  0.2143   0.2514   0.2725   0.3089   0.3257   0.3264   0.3472   0.3681
  0.3861   0.4038   0.4451   0.4878   0.4961   0.5063   0.5225   0.5298
  0.5475   0.5539   0.5609   0.5767   0.5804   0.5903   0.5998   0.6093
  0.6252   0.6374   0.6444   0.6692   0.6780   0.6960   0.7033   0.7099
  0.7232   0.7514   0.7804   0.8292   0.8389   0.8465   0.8502   0.8584
  0.8647   0.8712   0.8750   0.8891   0.9042   0.9150   0.9246   0.9426
  0.9493   0.9670   0.9928   0.9944   1.0208   1.0402   1.0528   1.0781
  1.0885   1.1182   1.1640   1.1794   1.2075   1.2350   1.2555   1.2785
  1.3015   1.3123   1.3302   1.3656   1.4001   1.4233   1.4522   1.4877
  1.4945   1.5145   1.5275   1.5371   1.5634   1.6467   1.6759   1.6814
  1.6884   1.7463   1.7667   1.7898   1.8319   1.8455   1.8835   1.9184
  1.9445   1.9590   1.9852   1.9908   2.0317   2.0354   2.0765   2.0873
  2.0915   2.1181   2.1387   2.1587   2.1895   2.2263   2.2577   2.2618
  2.2740   2.2970   2.3026   2.3430   2.3757   2.3821   2.3898   2.4060
  2.4263   2.5090   2.5343   2.5677   2.6452   2.6574   2.6735   2.6818
  2.7366   2.7496   2.7851   2.8270   2.9014   2.9294   2.9666   3.0350
  3.1189   3.2870   3.4757   4.0331   4.1001   4.1369   4.1558   4.1742
  4.2431   4.2880   4.3049   4.3620   4.4321   4.5289   4.7683
 --------------------------------------------------------------
 
          Ground-State Mulliken Net Atomic Charges

     Atom                 Charge (a.u.)
  ----------------------------------------
      1 C                    -0.333871
      2 C                    -0.106768
      3 C                     0.327863
      4 C                    -0.250829
      5 C                     0.351165
      6 O                    -0.503442
      7 C                    -0.224135
      8 C                     0.068546
      9 C                    -0.145926
     10 C                    -0.334299
     11 C                    -0.008151
     12 N                    -0.490422
     13 H                     0.139721
     14 H                     0.171053
     15 H                     0.124917
     16 H                     0.140157
     17 H                     0.168316
     18 H                     0.173989
     19 H                     0.153278
     20 H                     0.143129
     21 H                     0.151348
     22 H                     0.143968
     23 H                     0.140393
  ----------------------------------------
  Sum of atomic charges =     0.000000

 -----------------------------------------------------------------
                    Cartesian Multipole Moments
 -----------------------------------------------------------------
    Charge (ESU x 10^10)
                 0.0000
    Dipole Moment (Debye)
         X      -2.6516      Y       0.9718      Z       0.1199
       Tot       2.8266
    Quadrupole Moments (Debye-Ang)
        XX     -60.5479     XY       1.9313     YY     -68.3972
        XZ       0.6869     YZ      -0.3454     ZZ     -72.0403
    Octopole Moments (Debye-Ang^2)
       XXX     -17.2313    XXY      15.6362    XYY      -8.1132
       YYY       6.1211    XXZ      -0.8518    XYZ       0.5708
       YYZ       4.9137    XZZ      -8.9369    YZZ       2.6085
       ZZZ      -0.1746
    Hexadecapole Moments (Debye-Ang^3)
      XXXX   -2071.8261   XXXY     -25.6127   XXYY    -472.7635
      XYYY      -5.9423   YYYY    -796.2139   XXXZ      16.5721
      XXYZ       3.6229   XYYZ      -9.8946   YYYZ      -4.0326
      XXZZ    -416.1970   XYZZ      -8.5812   YYZZ    -154.3333
      XZZZ       0.5593   YZZZ      -1.7448   ZZZZ     -99.4139
 -----------------------------------------------------------------
Archival summary:
1\1\nia1977.scinet.local\SP\ProcedureUnspecified\6-31G*\111011\rhickman\MonFeb717:16:072022MonFeb717:16:072022\0\\#,ProcedureUnspecified,6-31G*,\\0,1\O\C,1,1.35714\C,2,1.39669,1,113.557\H,3,1.07864,2,118.081,1,-1.96922,0\C,3,1.38837,2,120.689,1,177.092,0\N,5,1.3369,3,121.157,2,-0.119973,0\C,6,1.30933,5,118.143,3,0.951776,0\H,7,1.0829,6,115.39,5,178.235,0\C,7,1.40156,6,126.038,5,-0.373796,0\C,1,1.4083,2,122.155,3,-171.22,0\H,10,1.09065,1,105.465,2,159.083,0\H,10,1.0922,1,111.92,2,40.1798,0\H,10,1.09357,1,111.388,2,-83.1613,0\C,5,1.45762,3,120.706,2,-179.714,0\H,14,1.08203,5,115.498,3,-0.112164,0\C,14,1.32712,5,123.328,3,179.977,0\H,16,1.07621,14,120.224,5,-0.0483085,0\H,16,1.07647,14,122.102,5,179.959,0\C,9,1.46688,7,117.497,6,177.193,0\H,19,1.08188,9,116.75,7,-130.04,0\C,19,1.32564,9,123.433,7,46.1341,0\H,21,1.07652,19,121.687,9,-176.855,0\H,21,1.07728,19,121.756,9,4.36559,0\\\@

 Total job time:  27.81s(wall), 27.72s(cpu) 
 Mon Feb  7 17:16:07 2022

        *************************************************************
        *                                                           *
        *  Thank you very much for using Q-Chem.  Have a nice day.  *
        *                                                           *
        *************************************************************


