20
 energy: -39.125512263850 gnorm: 0.000089528200 xtb: 6.4.1 (23d549d)
C        -2.56806589240000   -2.86937799770000    0.02245206690000
C        -2.92101610350000   -1.59020501900000   -0.01496382140000
C        -2.02772168070000   -0.43647418980000   -0.00921979060000
C        -2.58409414460000    0.84494152560000   -0.00251180470000
C        -1.77907353860000    1.96718182400000    0.00451402330000
C        -0.40817066200000    1.80988784510000    0.00354364160000
F         0.36722829390000    2.91515129220000    0.01009336400000
C         0.19868162650000    0.54923870020000   -0.00455615400000
C         1.65113676190000    0.47878070310000   -0.00622629960000
C         2.41769336130000   -0.60112994660000   -0.00167169520000
F         2.03646701890000   -1.87333199010000    0.00526811460000
F         3.74600671350000   -0.55034609410000   -0.00303769560000
C        -0.64030339110000   -0.56229485070000   -0.01134267930000
H        -3.30853655100000   -3.65045192200000    0.01558903770000
H        -1.54301086930000   -3.19498855240000    0.06307971610000
H        -3.97375411410000   -1.33794070970000   -0.05020856790000
H        -3.65761078880000    0.96121428790000   -0.00168275550000
H        -2.19764824530000    2.96123202580000    0.01040131130000
H         2.17781789020000    1.42233234220000   -0.01006574190000
H        -0.20489175870000   -1.54604253490000   -0.02128126760000
