26
 energy: -49.805382104976 gnorm: 0.000138197110 xtb: 6.4.1 (23d549d)
C         4.13436485930000   -2.03144575240000    0.54339062890000
C         2.99432594380000   -2.07442235920000   -0.13502026280000
C         1.94146315380000   -1.05609426830000   -0.13235661020000
C         0.62549002420000   -1.49916967580000   -0.12480238900000
C        -0.42230237020000   -0.59748775230000   -0.08407028030000
O        -1.71432931110000   -1.18027586490000   -0.06263477810000
C        -2.77806900890000   -0.42135766520000    0.01369208900000
F        -2.83030930930000    0.37023783450000    1.10358526070000
F        -2.95270021330000    0.41129109090000   -1.03319819720000
F        -3.86124132710000   -1.19439612790000    0.05923559450000
C        -0.18212616020000    0.76027370050000   -0.08092721350000
C         1.12675530570000    1.23520375340000   -0.12806431630000
C         1.35079783470000    2.68058013750000   -0.17559962480000
C         0.60983740720000    3.58200862080000    0.45391710800000
C         2.20641956800000    0.33005761970000   -0.15221780040000
N         3.50143512720000    0.78752529770000   -0.14283635180000
H         4.83906087410000   -2.84492133480000    0.50065705010000
H         4.38516512300000   -1.21643991010000    1.20089019840000
H         2.76059297980000   -2.95645051720000   -0.71931864710000
H         0.40569017990000   -2.55435278060000   -0.12924124770000
H        -0.98408143710000    1.47962152310000   -0.07700720690000
H         2.17871551410000    3.02069687230000   -0.78791057410000
H        -0.20737960720000    3.30153809950000    1.09623480170000
H         0.80588865310000    4.63642971770000    0.36343188320000
H         3.64368009870000    1.74703717800000   -0.41165380100000
H         4.19754024460000    0.13844888200000   -0.47562170220000
