
Running Job 1 of 1 fragments/B022/conf-1/spe_input.inp
qchem fragments/B022/conf-1/spe_input.inp_42284.0 /gpfs/fs0/scratch/a/aspuru/rhickman/descriptor_computation/qchem42284/ 0
/scinet/niagara/software/commercial/qc52/exe/qcprog.exe_s fragments/B022/conf-1/spe_input.inp_42284.0 /gpfs/fs0/scratch/a/aspuru/rhickman/descriptor_computation/qchem42284/
                  Welcome to Q-Chem
     A Quantum Leap Into The Future Of Chemistry


 Q-Chem 5.2, Q-Chem, Inc., Pleasanton, CA (2019)

 License issued to: SRG Alan Aspuru-Guzik, University of Toronto

 Yihan Shao,  Zhengting Gan,  E. Epifanovsky,  A. T. B. Gilbert,  M. Wormit,  
 J. Kussmann,  A. W. Lange,  A. Behn,  Jia Deng,  Xintian Feng,  D. Ghosh,  
 M. Goldey,  P. R. Horn,  L. D. Jacobson,  I. Kaliman,  T. Kus,  A. Landau,  
 Jie Liu,  E. I. Proynov,  R. M. Richard,  R. P. Steele,  E. J. Sundstrom,  
 H. L. Woodcock III,  P. M. Zimmerman,  D. Zuev,  B. Albrecht,  E. Alguire,  
 S. A. Baeppler,  D. Barton,  Z. Benda,  Y. A. Bernard,  E. J. Berquist,  
 K. B. Bravaya,  H. Burton,  D. Casanova,  Chun-Min Chang,  Yunqing Chen,  
 A. Chien,  K. D. Closser,  M. P. Coons,  S. Coriani,  S. Dasgupta,  
 A. L. Dempwolff,  M. Diedenhofen,  Hainam Do,  R. G. Edgar,  Po-Tung Fang,  
 S. Faraji,  S. Fatehi,  Qingguo Feng,  K. D. Fenk,  J. Fosso-Tande,  
 J. Gayvert,  Qinghui Ge,  A. Ghysels,  G. Gidofalvi,  J. Gomes,  
 J. Gonthier,  A. Gunina,  D. Hait,  M. W. D. Hanson-Heine,  
 P. H. P. Harbach,  A. W. Hauser,  M. F. Herbst,  J. E. Herr,  
 E. G. Hohenstein,  Z. C. Holden,  Kerwin Hui,  B. C. Huynh,  T.-C. Jagau,  
 Hyunjun Ji,  B. Kaduk,  K. Khistyaev,  Jaehoon Kim,  P. Klunzinger,  K. Koh,  
 D. Kosenkov,  L. Koulias,  T. Kowalczyk,  C. M. Krauter,  A. Kunitsa,  
 Ka Un Lao,  A. Laurent,  K. V. Lawler,  Joonho Lee,  D. Lefrancois,  
 S. Lehtola,  D. S. Levine,  Yi-Pei Li,  You-Sheng Lin,  Fenglai Liu,  
 E. Livshits,  A. Luenser,  P. Manohar,  E. Mansoor,  S. F. Manzer,  
 Shan-Ping Mao,  Yuezhi Mao,  N. Mardirossian,  A. V. Marenich,  
 T. Markovich,  L. A. Martinez-Martinez,  S. A. Maurer,  N. J. Mayhall,  
 S. C. McKenzie,  J.-M. Mewes,  P. Morgante,  A. F. Morrison,  
 J. W. Mullinax,  K. Nanda,  T. S. Nguyen-Beck,  R. Olivares-Amaya,  
 J. A. Parkhill,  Zheng Pei,  T. M. Perrine,  F. Plasser,  P. Pokhilko,  
 S. Prager,  A. Prociuk,  E. Ramos,  D. R. Rehn,  F. Rob,  M. Scheurer,  
 M. Schneider,  N. Sergueev,  S. M. Sharada,  S. Sharma,  D. W. Small,  
 T. Stauch,  T. Stein,  Yu-Chuan Su,  A. J. W. Thom,  A. Tkatchenko,  
 T. Tsuchimochi,  N. M. Tubman,  L. Vogt,  M. L. Vidal,  O. Vydrov,  
 M. A. Watson,  J. Wenzel,  M. de Wergifosse,  T. A. Wesolowski,  A. White,  
 J. Witte,  A. Yamada,  Jun Yang,  K. Yao,  S. Yeganeh,  S. R. Yost,  
 Zhi-Qiang You,  A. Zech,  Igor Ying Zhang,  Xing Zhang,  Yan Zhao,  
 Ying Zhu,  B. R. Brooks,  G. K. L. Chan,  C. J. Cramer,  M. S. Gordon,  
 W. J. Hehre,  A. Klamt,  M. W. Schmidt,  C. D. Sherrill,  D. G. Truhlar,  
 A. Aspuru-Guzik,  R. Baer,  A. T. Bell,  N. A. Besley,  Jeng-Da Chai,  
 A. E. DePrince, III,  R. A. DiStasio Jr.,  A. Dreuw,  B. D. Dunietz,  
 T. R. Furlani,  Chao-Ping Hsu,  Yousung Jung,  Jing Kong,  D. S. Lambrecht,  
 WanZhen Liang,  C. Ochsenfeld,  V. A. Rassolov,  L. V. Slipchenko,  
 J. E. Subotnik,  T. Van Voorhis,  J. M. Herbert,  A. I. Krylov,  
 P. M. W. Gill,  M. Head-Gordon

 Contributors to earlier versions of Q-Chem not listed above: 
 R. D. Adamson,  B. Austin,  J. Baker,  G. J. O. Beran,  K. Brandhorst,  
 S. T. Brown,  E. F. C. Byrd,  A. K. Chakraborty,  C.-L. Cheng,  
 Siu Hung Chien,  D. M. Chipman,  D. L. Crittenden,  H. Dachsel,  
 R. J. Doerksen,  A. D. Dutoi,  L. Fusti-Molnar,  W. A. Goddard III,  
 A. Golubeva-Zadorozhnaya,  S. R. Gwaltney,  G. Hawkins,  A. Heyden,  
 S. Hirata,  G. Kedziora,  F. J. Keil,  C. Kelley,  Jihan Kim,  R. A. King,  
 R. Z. Khaliullin,  P. P. Korambath,  W. Kurlancheek,  A. M. Lee,  M. S. Lee,  
 S. V. Levchenko,  Ching Yeh Lin,  D. Liotard,  R. C. Lochan,  I. Lotan,  
 P. E. Maslen,  N. Nair,  D. P. O'Neill,  D. Neuhauser,  E. Neuscamman,  
 C. M. Oana,  R. Olson,  B. Peters,  R. Peverati,  P. A. Pieniazek,  
 Y. M. Rhee,  J. Ritchie,  M. A. Rohrdanz,  E. Rosta,  N. J. Russ,  
 H. F. Schaefer III,  N. E. Schultz,  N. Shenvi,  A. C. Simmonett,  A. Sodt,  
 D. Stuck,  K. S. Thanthiriwatte,  V. Vanovschi,  Tao Wang,  A. Warshel,  
 C. F. Williams,  Q. Wu,  X. Xu,  W. Zhang

 Please cite Q-Chem as follows:
 Y. Shao et al., Mol. Phys. 113, 184-215 (2015)
 DOI: 10.1080/00268976.2014.952696

 Q-Chem 5.2.1 for Intel X86 EM64T Linux

 Parts of Q-Chem use Armadillo 8.300.2 (Tropical Shenanigans).
 http://arma.sourceforge.net/

 Q-Chem begins on Mon Feb  7 13:24:38 2022  

Host: 
0

     Scratch files written to /gpfs/fs0/scratch/a/aspuru/rhickman/descriptor_computation/qchem42284//
 Jul1719 |scratch|qcdevops|jenkins|workspace|build_RNUM -1
Processing $rem in /scinet/niagara/software/commercial/qc52/config/preferences:
	 MEM_TOTAL  4000 
NAlpha2: 94
NElect   94
Mult     1

Checking the input file for inconsistencies... 	...done.

--------------------------------------------------------------
User input:
--------------------------------------------------------------
$molecule
0 1
C        -3.89116097640000   -2.11952877940000   -0.04802764340000
C        -2.57793123220000   -1.94125922790000    0.02751797900000
C        -1.86946717630000   -0.66579742470000    0.01749990120000
C        -2.52610756630000    0.56672494440000    0.01199774030000
C        -1.80754647940000    1.74557106610000    0.00130074140000
C        -0.42770905480000    1.69817169330000   -0.00436474870000
F         0.25608236750000    2.86222701150000   -0.01520161820000
C         0.27772025870000    0.49090744780000    0.00273195540000
C         1.73090535230000    0.53444105560000   -0.00275870630000
C         2.57915871100000   -0.48261477190000    0.00022987860000
F         2.29801130690000   -1.78025755360000    0.00964712190000
F         3.89946015800000   -0.32826866590000   -0.00615047480000
C        -0.47572918920000   -0.68102960570000    0.01546530740000
H        -4.32037883520000   -3.10635721410000   -0.03524098410000
H        -4.59018243040000   -1.30496980240000   -0.12848332340000
H        -1.93446881390000   -2.80918241750000    0.09812154550000
H        -3.60299346720000    0.60847235440000    0.02020112100000
H        -2.30158062930000    2.70448436820000   -0.00205820670000
H         2.18190743820000    1.51636975460000   -0.01089307120000
H         0.02863298300000   -1.63376728600000    0.02167204690000
$end

$rem
BASIS = 6-31G*
GUI = 2
METHOD = B3LYP
PRINT_ORBITALS false
MOLDEN_FORMAT false
--------------------------------------------------------------
 ----------------------------------------------------------------
             Standard Nuclear Orientation (Angstroms)
    I     Atom           X                Y                Z
 ----------------------------------------------------------------
    1      C       3.9952381010     1.6486485459    -0.0467277862
    2      C       2.6701538849     1.6217167796     0.0273399891
    3      C       1.8206386325     0.4355144948     0.0188272108
    4      C       2.3321906801    -0.8639577070     0.0166443004
    5      C       1.4836820714    -1.9530249808     0.0072499347
    6      C       0.1182993311    -1.7483272434    -0.0004263614
    7      F      -0.6939774698    -2.8266726419    -0.0099411371
    8      C      -0.4446094095    -0.4683712058     0.0033325738
    9      C      -1.8932474576    -0.3456320500    -0.0040933278
   10      C      -2.6197686942     0.7616674172    -0.0042696970
   11      F      -2.1922380251     2.0187171154     0.0030048777
   12      F      -3.9490505698     0.7591383399    -0.0121842012
   13      C       0.4377675454     0.6098511708     0.0148252784
   14      H       4.5343604039     2.5800119100    -0.0352711250
   15      H       4.5967261407     0.7594043695    -0.1246211070
   16      H       2.1299685589     2.5576084830     0.0953542766
   17      H       3.3972479638    -1.0284286182     0.0264262751
   18      H       1.8649453745    -2.9621004975     0.0064499818
   19      H      -2.4534570427    -1.2696295589    -0.0109375591
   20      H       0.0455350720     1.6139772632     0.0184707135
 ----------------------------------------------------------------
 Molecular Point Group                 C1    NOp =  1
 Largest Abelian Subgroup              C1    NOp =  1
 Nuclear Repulsion Energy =         738.39380175 hartrees
 There are       47 alpha and       47 beta electrons
 Requested basis set is 6-31G(d)
 There are 66 shells and 209 basis functions

 Total QAlloc Memory Limit   4000 MB
 Mega-Array Size       188 MB
 MEM_STATIC part       192 MB
 A cutoff of  1.0D-08 yielded   1472 shell pairs
 There are     15694 function pairs
 Smallest overlap matrix eigenvalue = 3.60E-04

 Scale SEOQF with 1.000000e-01/1.000000e-01/1.000000e+00

 Standard Electronic Orientation quadrupole field applied
 Nucleus-field energy     =     0.0000000350 hartrees
 Guess from superposition of atomic densities
 Warning:  Energy on first SCF cycle will be non-variational
 SAD guess density has 94.000000 electrons

 -----------------------------------------------------------------------
  General SCF calculation program by
  Eric Jon Sundstrom, Paul Horn, Yuezhi Mao, Dmitri Zuev, Alec White,
  David Stuck, Shaama M.S., Shane Yost, Joonho Lee, David Small,
  Daniel Levine, Susi Lehtola, Hugh Burton, Evgeny Epifanovsky,
  Bang C. Huynh
 -----------------------------------------------------------------------
 Exchange:     0.2000 Hartree-Fock + 0.0800 Slater + 0.7200 B88
 Correlation:  0.1900 VWN1RPA + 0.8100 LYP
 Using SG-1 standard quadrature grid
 A restricted SCF calculation will be
 performed using DIIS
 SCF converges when DIIS error is below 1.0e-05
 ---------------------------------------
  Cycle       Energy         DIIS error
 ---------------------------------------
    1    -687.6162575341      5.45e-02  
    2    -684.5433346384      6.11e-03  
    3    -684.3695105369      8.24e-03  
    4    -684.7390997902      1.38e-03  
    5    -684.7491413428      4.12e-04  
    6    -684.7498236515      1.94e-04  
    7    -684.7500214595      4.96e-05  
    8    -684.7500339202      1.93e-05  
    9    -684.7500358837      4.49e-06  Convergence criterion met
 ---------------------------------------
 SCF time:   CPU 25.70s  wall 26.00s 
 SCF   energy in the final basis set =     -684.7500358837
 Total energy in the final basis set =     -684.7500358837
 
 --------------------------------------------------------------
 
                    Orbital Energies (a.u.)
 --------------------------------------------------------------
 
 Alpha MOs
 -- Occupied --
-24.7486 -24.7382 -24.7143 -10.3614 -10.2758 -10.2160 -10.2070 -10.2017
-10.1996 -10.1988 -10.1976 -10.1945 -10.1833  -1.2901  -1.2290  -1.2255
 -0.8801  -0.8205  -0.7930  -0.7517  -0.7311  -0.6570  -0.6305  -0.6271
 -0.5833  -0.5679  -0.5462  -0.5234  -0.5208  -0.5085  -0.4795  -0.4677
 -0.4486  -0.4467  -0.4450  -0.4394  -0.4345  -0.4164  -0.4025  -0.3865
 -0.3812  -0.3583  -0.3475  -0.3210  -0.2900  -0.2395  -0.2190
 -- Virtual --
 -0.0399  -0.0254   0.0366   0.0855   0.0900   0.1092   0.1106   0.1279
  0.1477   0.1634   0.1829   0.1848   0.1900   0.2145   0.2290   0.2547
  0.2976   0.3272   0.3387   0.3549   0.3992   0.4076   0.4258   0.4802
  0.4876   0.4886   0.5158   0.5221   0.5392   0.5425   0.5530   0.5599
  0.5774   0.5886   0.5907   0.5936   0.6009   0.6053   0.6300   0.6345
  0.6530   0.6646   0.6937   0.6970   0.7554   0.7738   0.7969   0.7979
  0.8238   0.8416   0.8514   0.8665   0.8822   0.8939   0.9100   0.9494
  0.9665   0.9749   0.9983   1.0199   1.0622   1.0808   1.1177   1.1354
  1.1395   1.1537   1.1853   1.1992   1.1999   1.2195   1.2370   1.2506
  1.2548   1.2848   1.3184   1.3410   1.3667   1.4019   1.4168   1.4193
  1.4361   1.4415   1.4671   1.4740   1.4999   1.5043   1.5129   1.5348
  1.5827   1.6210   1.6733   1.6989   1.7659   1.7754   1.7767   1.7935
  1.8027   1.8081   1.8275   1.8328   1.8581   1.8620   1.8825   1.9322
  1.9328   1.9442   1.9726   1.9905   2.0022   2.0146   2.0200   2.0377
  2.0617   2.0755   2.1324   2.1433   2.1576   2.1938   2.2012   2.2376
  2.2424   2.2699   2.2982   2.3352   2.3408   2.3497   2.4054   2.4922
  2.5095   2.5200   2.5511   2.5673   2.6369   2.6428   2.6670   2.6798
  2.6986   2.7116   2.7831   2.8480   2.9149   2.9316   3.0185   3.0682
  3.0885   3.1362   3.1972   3.3383   3.4696   4.0640   4.0836   4.0979
  4.1264   4.1447   4.2393   4.2556   4.3738   4.4996   4.7174   4.7680
  5.2582   5.5493
 --------------------------------------------------------------
 
          Ground-State Mulliken Net Atomic Charges

     Atom                 Charge (a.u.)
  ----------------------------------------
      1 C                    -0.355943
      2 C                    -0.110604
      3 C                     0.187711
      4 C                    -0.183856
      5 C                    -0.195907
      6 C                     0.308842
      7 F                    -0.290781
      8 C                     0.123284
      9 C                    -0.297917
     10 C                     0.552300
     11 F                    -0.234257
     12 F                    -0.244227
     13 C                    -0.283423
     14 H                     0.146613
     15 H                     0.142598
     16 H                     0.130567
     17 H                     0.135821
     18 H                     0.147394
     19 H                     0.176301
     20 H                     0.145483
  ----------------------------------------
  Sum of atomic charges =     0.000000

 -----------------------------------------------------------------
                    Cartesian Multipole Moments
 -----------------------------------------------------------------
    Charge (ESU x 10^10)
                -0.0000
    Dipole Moment (Debye)
         X       1.2853      Y       0.0720      Z       0.0098
       Tot       1.2873
    Quadrupole Moments (Debye-Ang)
        XX     -68.2439     XY      -0.4583     YY     -69.8335
        XZ      -0.1158     YZ       0.1158     ZZ     -74.2556
    Octopole Moments (Debye-Ang^2)
       XXX     -18.9383    XXY      -8.5149    XYY      -3.3236
       YYY       7.6017    XXZ      -0.9243    XYZ       0.1337
       YYZ       0.3893    XZZ     -26.3971    YZZ      -0.4415
       ZZZ      -0.1765
    Hexadecapole Moments (Debye-Ang^3)
      XXXX   -2271.8887   XXXY     -16.9098   XXYY    -521.0587
      XYYY     -43.4358   YYYY    -969.9058   XXXZ      -4.9959
      XXYZ      -0.0610   XYYZ       0.9446   YYYZ       1.1512
      XXZZ    -422.4338   XYZZ     -22.7702   YYZZ    -181.9157
      XZZZ       0.5239   YZZZ       0.4310   ZZZZ     -69.5970
 -----------------------------------------------------------------
Archival summary:
1\1\nia1977.scinet.local\SP\ProcedureUnspecified\6-31G*\3107\rhickman\MonFeb713:25:042022MonFeb713:25:042022\0\\#,ProcedureUnspecified,6-31G*,\\0,1\F\C,1,1.32778\C,2,1.32437,1,127.946\H,3,1.08058,2,115.502,1,-179.998,0\F,2,1.32931,1,108.894,3,179.999,0\C,3,1.45385,2,128.112,1,-0.038048,0\C,6,1.3933,3,124.454,2,0.152492,0\H,7,1.07802,6,119.368,3,-0.0129754,0\C,7,1.39382,6,122.111,3,-179.867,0\C,9,1.39654,7,118.672,6,-0.262693,0\H,10,1.07773,9,120.264,7,-179.582,0\C,10,1.38062,9,120.59,7,0.163478,0\H,12,1.0787,10,121.379,9,-179.938,0\C,12,1.38066,10,119.398,9,0.0195489,0\F,14,1.35008,12,118.464,10,179.981,0\C,9,1.45905,7,118.424,6,179.836,0\H,16,1.08274,9,114.369,7,3.80874,0\C,16,1.32743,9,126.683,7,-175.754,0\H,18,1.07621,16,121.133,9,179.845,0\H,18,1.07639,16,123.031,9,0.0688449,0\\\@

 Total job time:  25.95s(wall), 25.86s(cpu) 
 Mon Feb  7 13:25:04 2022

        *************************************************************
        *                                                           *
        *  Thank you very much for using Q-Chem.  Have a nice day.  *
        *                                                           *
        *************************************************************


