26
 energy: -41.233963463439 gnorm: 0.000051885588 xtb: 6.5.0 (unknown)
C           -4.30448418130000       -0.56777721950000        0.97721624420000
C           -3.66832932400000        0.17547090650000        0.08167436040000
C           -2.21937740060000        0.19206950230000       -0.11036074440000
C           -1.46749730550000       -0.95780374070000        0.10759271710000
C           -0.09091100410000       -1.00083588210000       -0.05448537970000
C            0.62986908330000       -2.29656463630000        0.15710014220000
C            0.56207439150000        0.16998694990000       -0.45196627410000
C            2.00963475630000        0.27000443740000       -0.65225166890000
C            2.95403324450000       -0.15841731580000        0.16593696130000
F            2.79542264220000       -0.75883773280000        1.33962010110000
F            4.25908667240000       -0.01174539130000       -0.07118437100000
C           -0.19206244010000        1.31454461560000       -0.71141330150000
C           -1.56314377070000        1.35440062890000       -0.54365082300000
C           -2.31495761840000        2.62468870670000       -0.80632764010000
H           -5.37670634900000       -0.54317425690000        1.07230161870000
H           -3.78137706440000       -1.21366445620000        1.66237893270000
H           -4.23795469410000        0.83597470300000       -0.55843331740000
H           -1.98078648240000       -1.86403902010000        0.39388108790000
H           -0.03938546420000       -3.13317854220000       -0.03031158450000
H            0.98408460630000       -2.37339319240000        1.18455903530000
H            1.49019310320000       -2.38154582650000       -0.50355735170000
H            2.34926803250000        0.80187032530000       -1.52965400480000
H            0.32399486750000        2.20718492950000       -1.03709626520000
H           -1.62739218050000        3.43342328120000       -1.04087427910000
H           -2.90350197450000        2.91035683370000        0.06405812280000
H           -2.99610488690000        2.50118090720000       -1.64845370730000
