
Running Job 1 of 1 fragments/C006/conf-1/spe_input.inp
qchem fragments/C006/conf-1/spe_input.inp_359303.0 /gpfs/fs0/scratch/a/aspuru/rhickman/descriptor_computation/qchem359303/ 0
/scinet/niagara/software/commercial/qc52/exe/qcprog.exe_s fragments/C006/conf-1/spe_input.inp_359303.0 /gpfs/fs0/scratch/a/aspuru/rhickman/descriptor_computation/qchem359303/
                  Welcome to Q-Chem
     A Quantum Leap Into The Future Of Chemistry


 Q-Chem 5.2, Q-Chem, Inc., Pleasanton, CA (2019)

 License issued to: SRG Alan Aspuru-Guzik, University of Toronto

 Yihan Shao,  Zhengting Gan,  E. Epifanovsky,  A. T. B. Gilbert,  M. Wormit,  
 J. Kussmann,  A. W. Lange,  A. Behn,  Jia Deng,  Xintian Feng,  D. Ghosh,  
 M. Goldey,  P. R. Horn,  L. D. Jacobson,  I. Kaliman,  T. Kus,  A. Landau,  
 Jie Liu,  E. I. Proynov,  R. M. Richard,  R. P. Steele,  E. J. Sundstrom,  
 H. L. Woodcock III,  P. M. Zimmerman,  D. Zuev,  B. Albrecht,  E. Alguire,  
 S. A. Baeppler,  D. Barton,  Z. Benda,  Y. A. Bernard,  E. J. Berquist,  
 K. B. Bravaya,  H. Burton,  D. Casanova,  Chun-Min Chang,  Yunqing Chen,  
 A. Chien,  K. D. Closser,  M. P. Coons,  S. Coriani,  S. Dasgupta,  
 A. L. Dempwolff,  M. Diedenhofen,  Hainam Do,  R. G. Edgar,  Po-Tung Fang,  
 S. Faraji,  S. Fatehi,  Qingguo Feng,  K. D. Fenk,  J. Fosso-Tande,  
 J. Gayvert,  Qinghui Ge,  A. Ghysels,  G. Gidofalvi,  J. Gomes,  
 J. Gonthier,  A. Gunina,  D. Hait,  M. W. D. Hanson-Heine,  
 P. H. P. Harbach,  A. W. Hauser,  M. F. Herbst,  J. E. Herr,  
 E. G. Hohenstein,  Z. C. Holden,  Kerwin Hui,  B. C. Huynh,  T.-C. Jagau,  
 Hyunjun Ji,  B. Kaduk,  K. Khistyaev,  Jaehoon Kim,  P. Klunzinger,  K. Koh,  
 D. Kosenkov,  L. Koulias,  T. Kowalczyk,  C. M. Krauter,  A. Kunitsa,  
 Ka Un Lao,  A. Laurent,  K. V. Lawler,  Joonho Lee,  D. Lefrancois,  
 S. Lehtola,  D. S. Levine,  Yi-Pei Li,  You-Sheng Lin,  Fenglai Liu,  
 E. Livshits,  A. Luenser,  P. Manohar,  E. Mansoor,  S. F. Manzer,  
 Shan-Ping Mao,  Yuezhi Mao,  N. Mardirossian,  A. V. Marenich,  
 T. Markovich,  L. A. Martinez-Martinez,  S. A. Maurer,  N. J. Mayhall,  
 S. C. McKenzie,  J.-M. Mewes,  P. Morgante,  A. F. Morrison,  
 J. W. Mullinax,  K. Nanda,  T. S. Nguyen-Beck,  R. Olivares-Amaya,  
 J. A. Parkhill,  Zheng Pei,  T. M. Perrine,  F. Plasser,  P. Pokhilko,  
 S. Prager,  A. Prociuk,  E. Ramos,  D. R. Rehn,  F. Rob,  M. Scheurer,  
 M. Schneider,  N. Sergueev,  S. M. Sharada,  S. Sharma,  D. W. Small,  
 T. Stauch,  T. Stein,  Yu-Chuan Su,  A. J. W. Thom,  A. Tkatchenko,  
 T. Tsuchimochi,  N. M. Tubman,  L. Vogt,  M. L. Vidal,  O. Vydrov,  
 M. A. Watson,  J. Wenzel,  M. de Wergifosse,  T. A. Wesolowski,  A. White,  
 J. Witte,  A. Yamada,  Jun Yang,  K. Yao,  S. Yeganeh,  S. R. Yost,  
 Zhi-Qiang You,  A. Zech,  Igor Ying Zhang,  Xing Zhang,  Yan Zhao,  
 Ying Zhu,  B. R. Brooks,  G. K. L. Chan,  C. J. Cramer,  M. S. Gordon,  
 W. J. Hehre,  A. Klamt,  M. W. Schmidt,  C. D. Sherrill,  D. G. Truhlar,  
 A. Aspuru-Guzik,  R. Baer,  A. T. Bell,  N. A. Besley,  Jeng-Da Chai,  
 A. E. DePrince, III,  R. A. DiStasio Jr.,  A. Dreuw,  B. D. Dunietz,  
 T. R. Furlani,  Chao-Ping Hsu,  Yousung Jung,  Jing Kong,  D. S. Lambrecht,  
 WanZhen Liang,  C. Ochsenfeld,  V. A. Rassolov,  L. V. Slipchenko,  
 J. E. Subotnik,  T. Van Voorhis,  J. M. Herbert,  A. I. Krylov,  
 P. M. W. Gill,  M. Head-Gordon

 Contributors to earlier versions of Q-Chem not listed above: 
 R. D. Adamson,  B. Austin,  J. Baker,  G. J. O. Beran,  K. Brandhorst,  
 S. T. Brown,  E. F. C. Byrd,  A. K. Chakraborty,  C.-L. Cheng,  
 Siu Hung Chien,  D. M. Chipman,  D. L. Crittenden,  H. Dachsel,  
 R. J. Doerksen,  A. D. Dutoi,  L. Fusti-Molnar,  W. A. Goddard III,  
 A. Golubeva-Zadorozhnaya,  S. R. Gwaltney,  G. Hawkins,  A. Heyden,  
 S. Hirata,  G. Kedziora,  F. J. Keil,  C. Kelley,  Jihan Kim,  R. A. King,  
 R. Z. Khaliullin,  P. P. Korambath,  W. Kurlancheek,  A. M. Lee,  M. S. Lee,  
 S. V. Levchenko,  Ching Yeh Lin,  D. Liotard,  R. C. Lochan,  I. Lotan,  
 P. E. Maslen,  N. Nair,  D. P. O'Neill,  D. Neuhauser,  E. Neuscamman,  
 C. M. Oana,  R. Olson,  B. Peters,  R. Peverati,  P. A. Pieniazek,  
 Y. M. Rhee,  J. Ritchie,  M. A. Rohrdanz,  E. Rosta,  N. J. Russ,  
 H. F. Schaefer III,  N. E. Schultz,  N. Shenvi,  A. C. Simmonett,  A. Sodt,  
 D. Stuck,  K. S. Thanthiriwatte,  V. Vanovschi,  Tao Wang,  A. Warshel,  
 C. F. Williams,  Q. Wu,  X. Xu,  W. Zhang

 Please cite Q-Chem as follows:
 Y. Shao et al., Mol. Phys. 113, 184-215 (2015)
 DOI: 10.1080/00268976.2014.952696

 Q-Chem 5.2.1 for Intel X86 EM64T Linux

 Parts of Q-Chem use Armadillo 8.300.2 (Tropical Shenanigans).
 http://arma.sourceforge.net/

 Q-Chem begins on Tue Feb  8 16:35:46 2022  

Host: 
0

     Scratch files written to /gpfs/fs0/scratch/a/aspuru/rhickman/descriptor_computation/qchem359303//
 Jul1719 |scratch|qcdevops|jenkins|workspace|build_RNUM -1
Processing $rem in /scinet/niagara/software/commercial/qc52/config/preferences:
	 MEM_TOTAL  4000 
NAlpha2: 122
NElect   122
Mult     1

Checking the input file for inconsistencies... 	...done.

--------------------------------------------------------------
User input:
--------------------------------------------------------------
$molecule
0 1
C        -5.90665089090000    0.34049929680000    0.03949791900000
C        -4.83342579110000   -0.44066713870000   -0.01046396840000
C        -3.43971947750000   -0.01631738680000   -0.00737135050000
C        -3.05471322360000    1.32591160370000   -0.00089255510000
C        -1.72128698520000    1.71023433350000    0.00253682010000
C        -0.74608544250000    0.73208211890000   -0.00057869170000
C        -1.11937503380000   -0.62560602070000   -0.00827879550000
C        -2.44170650950000   -1.00328799570000   -0.01266143770000
C         0.10270745010000   -1.47322375790000   -0.01134082800000
O         0.16809172160000   -2.68041831380000   -0.01778958110000
C         1.22755712190000   -0.49961135220000   -0.00464808650000
C         2.58083642450000   -0.74125168240000   -0.00418485380000
C         3.46770622710000    0.34613027630000    0.00239581100000
C         4.91457507610000    0.17844821700000    0.00376930920000
C         5.57860337570000   -0.97202937690000    0.01132265470000
C         2.94116456110000    1.63999603170000    0.00754701230000
C         1.57508244890000    1.88691941830000    0.00736252920000
C         0.71038274470000    0.81078190200000    0.00137957090000
H        -6.89922156100000   -0.07580513320000    0.03330550290000
H        -5.84926899710000    1.41427163610000    0.09028635220000
H        -4.97164206430000   -1.51405592930000   -0.05500949160000
H        -3.81354184210000    2.09308381450000   -0.00093080820000
H        -1.45832606090000    2.75767702920000    0.00696864230000
H        -2.70489249340000   -2.05111508530000   -0.01890161280000
H         2.94023439120000   -1.75800001360000   -0.00947272960000
H         5.47465749660000    1.10593445720000   -0.00097650420000
H         5.08860409420000   -1.93016562780000    0.01765027710000
H         6.65478485880000   -0.99447615800000    0.01200046170000
H         3.62416928430000    2.47821570160000    0.01225106860000
H         1.20466635230000    2.90125725070000    0.01180752180000
$end

$rem
BASIS = 6-31G*
GUI = 2
METHOD = B3LYP
PRINT_ORBITALS false
MOLDEN_FORMAT false
--------------------------------------------------------------
 ----------------------------------------------------------------
             Standard Nuclear Orientation (Angstroms)
    I     Atom           X                Y                Z
 ----------------------------------------------------------------
    1      C       5.9094776891    -0.1921249703     0.0364197899
    2      C       4.8192146428     0.5653611924    -0.0090830465
    3      C       3.4352413432     0.1102606271    -0.0081102860
    4      C       3.0800345077    -1.2401755431    -0.0089513855
    5      C       1.7554408188    -1.6539272830    -0.0074310436
    6      C       0.7588309085    -0.6975945034    -0.0050203024
    7      C       1.1019815072     0.6680442027    -0.0053137190
    8      C       2.4156298483     1.0749166117    -0.0078221244
    9      C      -0.1385601506     1.4884124208    -0.0035293612
   10      O      -0.2306452236     2.6938814936    -0.0033317221
   11      C      -1.2415865666     0.4901223167    -0.0020170725
   12      C      -2.5998817460     0.7017478035    -0.0000186915
   13      C      -3.4624689085    -0.4050149163     0.0007197331
   14      C      -4.9126937751    -0.2694047037     0.0032360964
   15      C      -5.6020172676     0.8660366352     0.0172153081
   16      C      -2.9074217281    -1.6869196364    -0.0013223623
   17      C      -1.5362098852    -1.9035449976    -0.0030729968
   18      C      -0.6955383890    -0.8085177267    -0.0032721502
   19      H       6.8925907877     0.2460718442     0.0323643459
   20      H       5.8758862193    -1.2671669983     0.0813133808
   21      H       4.9336308941     1.6417744302    -0.0477482822
   22      H       3.8556546672    -1.9903544099    -0.0133229620
   23      H       1.5157252788    -2.7069415731    -0.0087172074
   24      H       2.6555613899     2.1283301091    -0.0083422073
   25      H      -2.9816936337     1.7103069661     0.0003377951
   26      H      -5.4521151746    -1.2090189252    -0.0065227268
   27      H      -5.1333396878     1.8347331977     0.0287351176
   28      H      -6.6784317165     0.8646568481     0.0181809470
   29      H      -3.5717081860    -2.5400627995    -0.0011219510
   30      H      -1.1434361416    -2.9094458160    -0.0042607862
 ----------------------------------------------------------------
 Molecular Point Group                 C1    NOp =  1
 Largest Abelian Subgroup              C1    NOp =  1
 Nuclear Repulsion Energy =        1133.30215520 hartrees
 There are       61 alpha and       61 beta electrons
 Requested basis set is 6-31G(d)
 There are 96 shells and 294 basis functions

 Total QAlloc Memory Limit   4000 MB
 Mega-Array Size       188 MB
 MEM_STATIC part       192 MB
 A cutoff of  1.0D-08 yielded   2554 shell pairs
 There are     26743 function pairs
 Smallest overlap matrix eigenvalue = 2.80E-04

 Scale SEOQF with 1.000000e-02/1.000000e-01/1.000000e+00

 Standard Electronic Orientation quadrupole field applied
 Nucleus-field energy     =     0.0000000196 hartrees
 Guess from superposition of atomic densities
 Warning:  Energy on first SCF cycle will be non-variational
 SAD guess density has 122.000000 electrons

 -----------------------------------------------------------------------
  General SCF calculation program by
  Eric Jon Sundstrom, Paul Horn, Yuezhi Mao, Dmitri Zuev, Alec White,
  David Stuck, Shaama M.S., Shane Yost, Joonho Lee, David Small,
  Daniel Levine, Susi Lehtola, Hugh Burton, Evgeny Epifanovsky,
  Bang C. Huynh
 -----------------------------------------------------------------------
 Exchange:     0.2000 Hartree-Fock + 0.0800 Slater + 0.7200 B88
 Correlation:  0.1900 VWN1RPA + 0.8100 LYP
 Using SG-1 standard quadrature grid
 A restricted SCF calculation will be
 performed using DIIS
 SCF converges when DIIS error is below 1.0e-05
 ---------------------------------------
  Cycle       Energy         DIIS error
 ---------------------------------------
    1    -734.8148656663      4.83e-02  
    2    -729.9850722747      4.75e-03  
    3    -729.8423952315      6.52e-03  
    4    -730.1849782175      2.23e-03  
    5    -730.2323787455      3.62e-04  
    6    -730.2332295076      2.27e-04  
    7    -730.2337744032      6.27e-05  
    8    -730.2338187373      1.58e-05  
    9    -730.2338213623      3.72e-06  Convergence criterion met
 ---------------------------------------
 SCF time:   CPU 60.07s  wall 60.00s 
 SCF   energy in the final basis set =     -730.2338213623
 Total energy in the final basis set =     -730.2338213623
 
 --------------------------------------------------------------
 
                    Orbital Energies (a.u.)
 --------------------------------------------------------------
 
 Alpha MOs
 -- Occupied --
-19.1428 -10.2729 -10.2070 -10.2063 -10.2063 -10.2061 -10.2032 -10.2026
-10.2022 -10.2014 -10.2014 -10.2013 -10.1962 -10.1958 -10.1943 -10.1938
-10.1860 -10.1850  -1.0432  -0.9006  -0.8682  -0.8295  -0.7909  -0.7820
 -0.7590  -0.7526  -0.7150  -0.6756  -0.6518  -0.6149  -0.6011  -0.5861
 -0.5708  -0.5397  -0.5192  -0.5064  -0.4864  -0.4719  -0.4612  -0.4565
 -0.4481  -0.4392  -0.4347  -0.4327  -0.4264  -0.4092  -0.3985  -0.3801
 -0.3752  -0.3735  -0.3701  -0.3574  -0.3512  -0.3470  -0.3304  -0.2957
 -0.2686  -0.2632  -0.2504  -0.2494  -0.2095
 -- Virtual --
 -0.0858  -0.0526  -0.0183   0.0009   0.0233   0.0828   0.0925   0.0931
  0.0998   0.1095   0.1146   0.1188   0.1387   0.1531   0.1791   0.1817
  0.1938   0.1999   0.2017   0.2090   0.2137   0.2290   0.2450   0.2571
  0.2783   0.2836   0.3020   0.3118   0.3251   0.3285   0.3542   0.3634
  0.3833   0.4024   0.4135   0.4256   0.4541   0.4872   0.4932   0.4995
  0.5082   0.5221   0.5306   0.5398   0.5420   0.5430   0.5468   0.5511
  0.5590   0.5615   0.5749   0.5814   0.5839   0.5898   0.5970   0.6020
  0.6042   0.6148   0.6159   0.6199   0.6384   0.6421   0.6517   0.6649
  0.6671   0.6834   0.6964   0.7007   0.7118   0.7272   0.7502   0.7515
  0.7743   0.7911   0.8055   0.8094   0.8214   0.8278   0.8334   0.8389
  0.8590   0.8699   0.8737   0.8769   0.8814   0.9036   0.9194   0.9266
  0.9399   0.9553   0.9654   0.9768   0.9783   0.9881   1.0113   1.0134
  1.0279   1.0346   1.0679   1.0828   1.0975   1.1051   1.1214   1.1453
  1.1487   1.1699   1.1985   1.2091   1.2144   1.2449   1.2554   1.2628
  1.2968   1.3015   1.3120   1.3163   1.3209   1.3351   1.3777   1.4107
  1.4349   1.4396   1.4501   1.4523   1.4640   1.4678   1.4698   1.4756
  1.4995   1.5046   1.5110   1.5209   1.5552   1.5733   1.6461   1.6708
  1.6713   1.7115   1.7305   1.7401   1.7655   1.7809   1.7824   1.7922
  1.8134   1.8164   1.8431   1.8504   1.8852   1.9038   1.9153   1.9196
  1.9306   1.9562   1.9742   1.9873   1.9956   1.9970   2.0170   2.0196
  2.0530   2.0656   2.1002   2.1165   2.1182   2.1350   2.1468   2.1474
  2.1895   2.1986   2.2128   2.2253   2.2298   2.2530   2.2745   2.2814
  2.2899   2.2901   2.3140   2.3159   2.3725   2.3888   2.3956   2.4356
  2.4635   2.4733   2.5122   2.5552   2.5572   2.5892   2.5922   2.6007
  2.6362   2.6673   2.6700   2.7038   2.7105   2.7430   2.7495   2.7612
  2.8027   2.8335   2.8702   2.8968   2.9313   2.9423   2.9731   2.9969
  3.0950   3.1050   3.1442   3.2447   3.3375   3.3934   3.5506   3.9911
  4.0764   4.0832   4.0835   4.1230   4.1298   4.1396   4.1600   4.1704
  4.2355   4.2732   4.3422   4.3515   4.4755   4.5400   4.6881   4.8431
  4.8658
 --------------------------------------------------------------
 
          Ground-State Mulliken Net Atomic Charges

     Atom                 Charge (a.u.)
  ----------------------------------------
      1 C                    -0.354467
      2 C                    -0.108951
      3 C                     0.180027
      4 C                    -0.189360
      5 C                    -0.191284
      6 C                     0.083318
      7 C                     0.047613
      8 C                    -0.258888
      9 C                     0.343656
     10 O                    -0.458937
     11 C                     0.045847
     12 C                    -0.242514
     13 C                     0.183588
     14 C                    -0.118712
     15 C                    -0.349358
     16 C                    -0.204522
     17 C                    -0.191303
     18 C                     0.082995
     19 H                     0.148731
     20 H                     0.143248
     21 H                     0.133892
     22 H                     0.133895
     23 H                     0.136227
     24 H                     0.153831
     25 H                     0.153759
     26 H                     0.128503
     27 H                     0.150643
     28 H                     0.147802
     29 H                     0.134994
     30 H                     0.135728
  ----------------------------------------
  Sum of atomic charges =     0.000000

 -----------------------------------------------------------------
                    Cartesian Multipole Moments
 -----------------------------------------------------------------
    Charge (ESU x 10^10)
                 0.0000
    Dipole Moment (Debye)
         X       0.2264      Y      -3.2008      Z      -0.0005
       Tot       3.2088
    Quadrupole Moments (Debye-Ang)
        XX     -84.9276     XY       1.1092     YY    -100.2040
        XZ       0.0063     YZ      -0.0519     ZZ    -107.4416
    Octopole Moments (Debye-Ang^2)
       XXX      -2.0731    XXY       3.0650    XYY       2.7530
       YYY     -32.1886    XXZ       0.4509    XYZ      -0.7216
       YYZ       0.0005    XZZ      -0.6667    YZZ       6.8224
       ZZZ      -0.0751
    Hexadecapole Moments (Debye-Ang^3)
      XXXX   -5944.0335   XXXY      -1.4531   XXYY   -1154.4073
      XYYY      10.8562   YYYY   -1084.2222   XXXZ       2.6456
      XXYZ      -2.0918   XYYZ      -0.3228   YYYZ       0.0178
      XXZZ   -1239.7005   XYZZ      -0.6221   YYZZ    -203.1836
      XZZZ      -0.0582   YZZZ      -0.1370   ZZZZ    -108.6786
 -----------------------------------------------------------------
Archival summary:
1\1\nia2015.scinet.local\SP\ProcedureUnspecified\6-31G*\11712\rhickman\TueFeb816:36:462022TueFeb816:36:462022\0\\#,ProcedureUnspecified,6-31G*,\\0,1\C\C,1,1.37468\H,2,1.07841,1,119.591\C,2,1.4032,1,119.076,3,179.963,0\C,4,1.39691,2,118.656,1,-0.0333912,0\H,5,1.08126,4,118.682,2,-179.978,0\C,5,1.38822,4,122.389,2,0.0477006,0\H,7,1.07987,5,120.307,4,179.977,0\C,7,1.38051,5,118.537,4,-0.0234733,0\C,4,1.45655,2,122.59,1,179.98,0\H,10,1.08349,4,114.515,2,179.415,0\C,10,1.32838,4,126.603,2,-0.650078,0\H,12,1.07618,10,122.923,4,-0.0157085,0\H,12,1.07642,10,121.187,4,-179.98,0\C,9,1.45859,7,131.875,5,-179.993,0\C,15,1.38123,9,131.82,7,0.0222844,0\H,16,1.07996,15,120.994,9,0.0221988,0\C,16,1.38771,15,118.835,9,179.986,0\H,18,1.07906,16,118.608,15,-179.849,0\C,18,1.39637,16,122.083,15,0,0\C,20,1.40363,18,118.677,16,-0.101192,0\H,21,1.08039,20,120.582,18,-179.928,0\C,21,1.37522,20,119.377,18,0.146211,0\C,20,1.45688,18,122.939,16,179.972,0\H,24,1.08317,20,114.255,18,177.707,0\C,24,1.32836,20,126.98,18,-2.55237,0\H,26,1.07636,24,121.157,20,-179.913,0\H,26,1.0765,24,123.044,20,-0.0480242,0\C,23,1.48726,21,129.314,20,179.951,0\O,29,1.20898,23,127.845,21,-0.0372397,0\\\@

 Total job time:  60.50s(wall), 60.33s(cpu) 
 Tue Feb  8 16:36:46 2022

        *************************************************************
        *                                                           *
        *  Thank you very much for using Q-Chem.  Have a nice day.  *
        *                                                           *
        *************************************************************


