
Running Job 1 of 1 fragments/A030/conf-1/spe_input.inp
qchem fragments/A030/conf-1/spe_input.inp_88245.0 /gpfs/fs0/scratch/a/aspuru/rhickman/descriptor_computation/qchem88245/ 0
/scinet/niagara/software/commercial/qc52/exe/qcprog.exe_s fragments/A030/conf-1/spe_input.inp_88245.0 /gpfs/fs0/scratch/a/aspuru/rhickman/descriptor_computation/qchem88245/
                  Welcome to Q-Chem
     A Quantum Leap Into The Future Of Chemistry


 Q-Chem 5.2, Q-Chem, Inc., Pleasanton, CA (2019)

 License issued to: SRG Alan Aspuru-Guzik, University of Toronto

 Yihan Shao,  Zhengting Gan,  E. Epifanovsky,  A. T. B. Gilbert,  M. Wormit,  
 J. Kussmann,  A. W. Lange,  A. Behn,  Jia Deng,  Xintian Feng,  D. Ghosh,  
 M. Goldey,  P. R. Horn,  L. D. Jacobson,  I. Kaliman,  T. Kus,  A. Landau,  
 Jie Liu,  E. I. Proynov,  R. M. Richard,  R. P. Steele,  E. J. Sundstrom,  
 H. L. Woodcock III,  P. M. Zimmerman,  D. Zuev,  B. Albrecht,  E. Alguire,  
 S. A. Baeppler,  D. Barton,  Z. Benda,  Y. A. Bernard,  E. J. Berquist,  
 K. B. Bravaya,  H. Burton,  D. Casanova,  Chun-Min Chang,  Yunqing Chen,  
 A. Chien,  K. D. Closser,  M. P. Coons,  S. Coriani,  S. Dasgupta,  
 A. L. Dempwolff,  M. Diedenhofen,  Hainam Do,  R. G. Edgar,  Po-Tung Fang,  
 S. Faraji,  S. Fatehi,  Qingguo Feng,  K. D. Fenk,  J. Fosso-Tande,  
 J. Gayvert,  Qinghui Ge,  A. Ghysels,  G. Gidofalvi,  J. Gomes,  
 J. Gonthier,  A. Gunina,  D. Hait,  M. W. D. Hanson-Heine,  
 P. H. P. Harbach,  A. W. Hauser,  M. F. Herbst,  J. E. Herr,  
 E. G. Hohenstein,  Z. C. Holden,  Kerwin Hui,  B. C. Huynh,  T.-C. Jagau,  
 Hyunjun Ji,  B. Kaduk,  K. Khistyaev,  Jaehoon Kim,  P. Klunzinger,  K. Koh,  
 D. Kosenkov,  L. Koulias,  T. Kowalczyk,  C. M. Krauter,  A. Kunitsa,  
 Ka Un Lao,  A. Laurent,  K. V. Lawler,  Joonho Lee,  D. Lefrancois,  
 S. Lehtola,  D. S. Levine,  Yi-Pei Li,  You-Sheng Lin,  Fenglai Liu,  
 E. Livshits,  A. Luenser,  P. Manohar,  E. Mansoor,  S. F. Manzer,  
 Shan-Ping Mao,  Yuezhi Mao,  N. Mardirossian,  A. V. Marenich,  
 T. Markovich,  L. A. Martinez-Martinez,  S. A. Maurer,  N. J. Mayhall,  
 S. C. McKenzie,  J.-M. Mewes,  P. Morgante,  A. F. Morrison,  
 J. W. Mullinax,  K. Nanda,  T. S. Nguyen-Beck,  R. Olivares-Amaya,  
 J. A. Parkhill,  Zheng Pei,  T. M. Perrine,  F. Plasser,  P. Pokhilko,  
 S. Prager,  A. Prociuk,  E. Ramos,  D. R. Rehn,  F. Rob,  M. Scheurer,  
 M. Schneider,  N. Sergueev,  S. M. Sharada,  S. Sharma,  D. W. Small,  
 T. Stauch,  T. Stein,  Yu-Chuan Su,  A. J. W. Thom,  A. Tkatchenko,  
 T. Tsuchimochi,  N. M. Tubman,  L. Vogt,  M. L. Vidal,  O. Vydrov,  
 M. A. Watson,  J. Wenzel,  M. de Wergifosse,  T. A. Wesolowski,  A. White,  
 J. Witte,  A. Yamada,  Jun Yang,  K. Yao,  S. Yeganeh,  S. R. Yost,  
 Zhi-Qiang You,  A. Zech,  Igor Ying Zhang,  Xing Zhang,  Yan Zhao,  
 Ying Zhu,  B. R. Brooks,  G. K. L. Chan,  C. J. Cramer,  M. S. Gordon,  
 W. J. Hehre,  A. Klamt,  M. W. Schmidt,  C. D. Sherrill,  D. G. Truhlar,  
 A. Aspuru-Guzik,  R. Baer,  A. T. Bell,  N. A. Besley,  Jeng-Da Chai,  
 A. E. DePrince, III,  R. A. DiStasio Jr.,  A. Dreuw,  B. D. Dunietz,  
 T. R. Furlani,  Chao-Ping Hsu,  Yousung Jung,  Jing Kong,  D. S. Lambrecht,  
 WanZhen Liang,  C. Ochsenfeld,  V. A. Rassolov,  L. V. Slipchenko,  
 J. E. Subotnik,  T. Van Voorhis,  J. M. Herbert,  A. I. Krylov,  
 P. M. W. Gill,  M. Head-Gordon

 Contributors to earlier versions of Q-Chem not listed above: 
 R. D. Adamson,  B. Austin,  J. Baker,  G. J. O. Beran,  K. Brandhorst,  
 S. T. Brown,  E. F. C. Byrd,  A. K. Chakraborty,  C.-L. Cheng,  
 Siu Hung Chien,  D. M. Chipman,  D. L. Crittenden,  H. Dachsel,  
 R. J. Doerksen,  A. D. Dutoi,  L. Fusti-Molnar,  W. A. Goddard III,  
 A. Golubeva-Zadorozhnaya,  S. R. Gwaltney,  G. Hawkins,  A. Heyden,  
 S. Hirata,  G. Kedziora,  F. J. Keil,  C. Kelley,  Jihan Kim,  R. A. King,  
 R. Z. Khaliullin,  P. P. Korambath,  W. Kurlancheek,  A. M. Lee,  M. S. Lee,  
 S. V. Levchenko,  Ching Yeh Lin,  D. Liotard,  R. C. Lochan,  I. Lotan,  
 P. E. Maslen,  N. Nair,  D. P. O'Neill,  D. Neuhauser,  E. Neuscamman,  
 C. M. Oana,  R. Olson,  B. Peters,  R. Peverati,  P. A. Pieniazek,  
 Y. M. Rhee,  J. Ritchie,  M. A. Rohrdanz,  E. Rosta,  N. J. Russ,  
 H. F. Schaefer III,  N. E. Schultz,  N. Shenvi,  A. C. Simmonett,  A. Sodt,  
 D. Stuck,  K. S. Thanthiriwatte,  V. Vanovschi,  Tao Wang,  A. Warshel,  
 C. F. Williams,  Q. Wu,  X. Xu,  W. Zhang

 Please cite Q-Chem as follows:
 Y. Shao et al., Mol. Phys. 113, 184-215 (2015)
 DOI: 10.1080/00268976.2014.952696

 Q-Chem 5.2.1 for Intel X86 EM64T Linux

 Parts of Q-Chem use Armadillo 8.300.2 (Tropical Shenanigans).
 http://arma.sourceforge.net/

 Q-Chem begins on Mon Feb  7 14:58:18 2022  

Host: 
0

     Scratch files written to /gpfs/fs0/scratch/a/aspuru/rhickman/descriptor_computation/qchem88245//
 Jul1719 |scratch|qcdevops|jenkins|workspace|build_RNUM -1
Processing $rem in /scinet/niagara/software/commercial/qc52/config/preferences:
	 MEM_TOTAL  4000 
NAlpha2: 222
NElect   222
Mult     1

Checking the input file for inconsistencies... 	...done.

--------------------------------------------------------------
User input:
--------------------------------------------------------------
$molecule
0 1
C         2.87004376230000   -0.89481414570000    2.11816069180000
O         1.88838276310000   -1.50232975750000    1.28983694320000
C         2.34358431140000   -2.34654483590000    0.35413392070000
C         1.23667317570000   -2.94524270620000   -0.44215623200000
C         0.15589547710000   -2.20006951150000   -0.93294990420000
N         0.10023049480000   -0.80621850330000   -0.79591637960000
C         1.24760034850000   -0.04106624820000   -0.97813276050000
C         1.44560285750000    1.12480260470000   -0.23946294480000
C         2.60532558910000    1.86234577230000   -0.41328011570000
C         2.77627158250000    3.08855834130000    0.43536418400000
F         1.74898384210000    3.94876826010000    0.30088127880000
F         2.82959923500000    2.78547484090000    1.74977552180000
F         3.88855437820000    3.78109294370000    0.16422431500000
C         3.58648672640000    1.46520630250000   -1.31053355080000
C         3.38325670860000    0.30874634600000   -2.04656948170000
C         2.23141511320000   -0.43537398410000   -1.88989358630000
C        -1.11541781750000   -0.20454819660000   -0.45258568700000
C        -1.98903496660000   -0.83672489530000    0.43245375810000
C        -3.19459567540000   -0.25819974280000    0.76540582560000
C        -3.56846761430000    0.97658721830000    0.22834197190000
C        -4.82064460990000    1.64316955350000    0.53686975250000
C        -5.81202739150000    1.22084901180000    1.30886386490000
F        -5.89448381890000    0.08041066070000    1.98495067410000
F        -6.92316614670000    1.92531945570000    1.51606962550000
C        -2.68573459760000    1.60440189080000   -0.65548662350000
C        -1.48278444960000    1.02686886250000   -0.99628529310000
C        -0.86681329080000   -2.86428593990000   -1.60986542960000
C        -0.81294443770000   -4.23008425560000   -1.80616872920000
C         0.27663580680000   -4.95959074970000   -1.35513540770000
C         1.29671567130000   -4.31394043930000   -0.68293410070000
O         3.50718581150000   -2.62255000760000    0.21123575040000
H         2.37731115630000   -0.07334170670000    2.63145673670000
H         3.69937183570000   -0.52640967020000    1.51146148990000
H         3.25340208850000   -1.62004084590000    2.83847665800000
H         0.70802924840000    1.44172018010000    0.48200823900000
H         4.48670359770000    2.04643692140000   -1.42763942390000
H         4.13267161550000   -0.01381656150000   -2.75188980680000
H         2.08645214120000   -1.33118531710000   -2.47471761460000
H        -1.70772827590000   -1.78480118880000    0.86535606500000
H        -3.84197874600000   -0.76986744620000    1.45793208610000
H        -4.97670903200000    2.61024002320000    0.08083342340000
H        -2.95497946020000    2.55664779190000   -1.08756894180000
H        -0.82240416770000    1.52370613890000   -1.69131420620000
H        -1.70105241050000   -2.29189118810000   -1.98764091870000
H        -1.61619211060000   -4.72440749500000   -2.33124677660000
H         0.32868050890000   -6.02332245960000   -1.52598223140000
H         2.15248365370000   -4.86078823860000   -0.31725680940000
$end

$rem
BASIS = 6-31G*
GUI = 2
METHOD = B3LYP
PRINT_ORBITALS false
MOLDEN_FORMAT false
--------------------------------------------------------------
 ----------------------------------------------------------------
             Standard Nuclear Orientation (Angstroms)
    I     Atom           X                Y                Z
 ----------------------------------------------------------------
    1      C       2.5997375045     0.0917087966    -2.5760867879
    2      O       1.7940349613     0.9508295766    -1.7813486766
    3      C       2.4418933476     1.9000309759    -1.0923320516
    4      C       1.5075075063     2.7585464761    -0.3128170454
    5      C       0.4403929757     2.2453843382     0.4369650239
    6      N       0.2449208275     0.8659176685     0.5904569024
    7      C       1.3347291310     0.0251781588     0.7919346988
    8      C       1.3297062103    -1.2738787693     0.2854624486
    9      C       2.4330155535    -2.0906534067     0.4718138160
   10      C       2.3813665248    -3.4663069634    -0.1264558676
   11      F       1.3095963927    -4.1649548594     0.2937426082
   12      F       2.2858650450    -3.4247099185    -1.4723866849
   13      F       3.4547291682    -4.2154809902     0.1508975801
   14      C       3.5557789593    -1.6438517956     1.1538924900
   15      C       3.5544653968    -0.3538852182     1.6602870659
   16      C       2.4617924735     0.4716580370     1.4883984996
   17      C      -1.0536418743     0.3504282406     0.5150281229
   18      C      -1.9782956467     0.8980746381    -0.3744930660
   19      C      -3.2634889590     0.4059936228    -0.4456230775
   20      C      -3.6695321078    -0.6553657619     0.3677414574
   21      C      -5.0052258595    -1.2235180027     0.3433721736
   22      C      -6.0495264310    -0.8460637624    -0.3805988079
   23      F      -6.1207458510     0.1481739738    -1.2586142900
   24      F      -7.2358370554    -1.4478681876    -0.3147147953
   25      C      -2.7356570953    -1.2000072733     1.2541752749
   26      C      -1.4520849145    -0.7071203120     1.3334349167
   27      C      -0.4209868077     3.1358448407     1.0776180332
   28      C      -0.2218697809     4.4993326120     0.9876436761
   29      C       0.8578461230     5.0037285691     0.2787049082
   30      C       1.7188863315     4.1325658192    -0.3608004264
   31      O       3.6338529460     2.0658031329    -1.1404890947
   32      H       1.9729787479    -0.7513619258    -2.8544398672
   33      H       3.4668084114    -0.2461755359    -2.0054616458
   34      H       2.9460736632     0.6202861899    -3.4662719758
   35      H       0.4778281386    -1.6365477541    -0.2692872299
   36      H       4.4090716846    -2.2897349429     1.2829650210
   37      H       4.4163817741     0.0099149331     2.1968463836
   38      H       2.4750294549     1.4722592049     1.8935323499
   39      H      -1.6749451248     1.7097599839    -1.0183345683
   40      H      -3.9497776940     0.8470435146    -1.1491741172
   41      H      -5.1835242785    -2.0634104090     0.9993759467
   42      H      -3.0275746565    -2.0172677425     1.8966934809
   43      H      -0.7513309425    -1.1346865798     2.0349657736
   44      H      -1.2445754299     2.7422678915     1.6547696141
   45      H      -0.9016831038     5.1707762687     1.4899249786
   46      H       1.0252738917     6.0679193750     0.2249619105
   47      H       2.5630957507     4.5010888516    -0.9234748152
 ----------------------------------------------------------------
 Molecular Point Group                 C1    NOp =  1
 Largest Abelian Subgroup              C1    NOp =  1
 Nuclear Repulsion Energy =        3099.51817658 hartrees
 There are      111 alpha and      111 beta electrons
 Requested basis set is 6-31G(d)
 There are 156 shells and 497 basis functions

 Total QAlloc Memory Limit   4000 MB
 Mega-Array Size       188 MB
 MEM_STATIC part       192 MB
 A cutoff of  1.0D-08 yielded   5342 shell pairs
 There are     56627 function pairs
 Smallest overlap matrix eigenvalue = 3.25E-04

 Scale SEOQF with 1.000000e-02/1.000000e-02/1.000000e-01

 Standard Electronic Orientation quadrupole field applied
 Nucleus-field energy     =    -0.0000000103 hartrees
 Guess from superposition of atomic densities
 Warning:  Energy on first SCF cycle will be non-variational
 SAD guess density has 222.000000 electrons

 -----------------------------------------------------------------------
  General SCF calculation program by
  Eric Jon Sundstrom, Paul Horn, Yuezhi Mao, Dmitri Zuev, Alec White,
  David Stuck, Shaama M.S., Shane Yost, Joonho Lee, David Small,
  Daniel Levine, Susi Lehtola, Hugh Burton, Evgeny Epifanovsky,
  Bang C. Huynh
 -----------------------------------------------------------------------
 Exchange:     0.2000 Hartree-Fock + 0.0800 Slater + 0.7200 B88
 Correlation:  0.1900 VWN1RPA + 0.8100 LYP
 Using SG-1 standard quadrature grid
 A restricted SCF calculation will be
 performed using DIIS
 SCF converges when DIIS error is below 1.0e-05
 ---------------------------------------
  Cycle       Energy         DIIS error
 ---------------------------------------
    1   -1597.9435758596      3.64e-02  
    2   -1589.9773343286      4.18e-03  
    3   -1589.3886950356      6.44e-03  
    4   -1590.4004158687      1.53e-03  
    5   -1590.4587262093      5.49e-04  
    6   -1590.4661595760      2.06e-04  
    7   -1590.4673432303      7.01e-05  
    8   -1590.4674791830      2.50e-05  
    9   -1590.4674962865      6.14e-06  Convergence criterion met
 ---------------------------------------
 SCF time:   CPU 210.46s  wall 211.00s 
 SCF   energy in the final basis set =    -1590.4674962865
 Total energy in the final basis set =    -1590.4674962865
 
 --------------------------------------------------------------
 
                    Orbital Energies (a.u.)
 --------------------------------------------------------------
 
 Alpha MOs
 -- Occupied --
-24.7459 -24.7352 -24.7246 -24.7172 -24.7172 -19.1924 -19.1355 -14.3804
-10.4280 -10.3574 -10.3162 -10.2453 -10.2431 -10.2362 -10.2352 -10.2146
-10.2092 -10.2081 -10.2051 -10.2032 -10.2027 -10.2017 -10.2012 -10.1995
-10.1994 -10.1987 -10.1976 -10.1966 -10.1950 -10.1947 -10.1939  -1.3038
 -1.2866  -1.2258  -1.2147  -1.2082  -1.1102  -1.0195  -0.9949  -0.8805
 -0.8772  -0.8610  -0.8120  -0.7888  -0.7832  -0.7777  -0.7583  -0.7555
 -0.7319  -0.7200  -0.6973  -0.6583  -0.6512  -0.6345  -0.6269  -0.6211
 -0.6208  -0.5968  -0.5824  -0.5778  -0.5758  -0.5735  -0.5626  -0.5500
 -0.5352  -0.5236  -0.5203  -0.5095  -0.5040  -0.4967  -0.4818  -0.4808
 -0.4745  -0.4704  -0.4592  -0.4564  -0.4551  -0.4515  -0.4500  -0.4452
 -0.4423  -0.4421  -0.4337  -0.4282  -0.4237  -0.4165  -0.4140  -0.4101
 -0.4077  -0.4006  -0.3946  -0.3930  -0.3870  -0.3856  -0.3772  -0.3740
 -0.3713  -0.3667  -0.3595  -0.3527  -0.3508  -0.3330  -0.3075  -0.2958
 -0.2835  -0.2731  -0.2687  -0.2618  -0.2588  -0.2403  -0.1914
 -- Virtual --
 -0.0466  -0.0347  -0.0258  -0.0158  -0.0053   0.0084   0.0439   0.0654
  0.0832   0.0919   0.0983   0.1147   0.1175   0.1276   0.1343   0.1379
  0.1422   0.1451   0.1497   0.1551   0.1570   0.1594   0.1651   0.1729
  0.1760   0.1784   0.1796   0.1825   0.1853   0.1877   0.2007   0.2097
  0.2284   0.2393   0.2433   0.2535   0.2632   0.2722   0.2827   0.2870
  0.2917   0.2941   0.3069   0.3126   0.3209   0.3275   0.3470   0.3643
  0.3684   0.3822   0.3911   0.4054   0.4173   0.4230   0.4378   0.4430
  0.4751   0.4787   0.4910   0.4938   0.4979   0.5014   0.5090   0.5177
  0.5224   0.5253   0.5333   0.5368   0.5408   0.5485   0.5534   0.5537
  0.5643   0.5665   0.5717   0.5723   0.5751   0.5786   0.5858   0.5878
  0.5882   0.5909   0.5949   0.5966   0.5998   0.6029   0.6062   0.6134
  0.6193   0.6241   0.6349   0.6413   0.6452   0.6507   0.6571   0.6625
  0.6762   0.6857   0.6914   0.6950   0.7097   0.7245   0.7296   0.7336
  0.7567   0.7763   0.7790   0.7914   0.8034   0.8091   0.8097   0.8176
  0.8214   0.8260   0.8313   0.8359   0.8397   0.8421   0.8430   0.8517
  0.8663   0.8695   0.8743   0.8788   0.8828   0.8837   0.8939   0.9055
  0.9178   0.9228   0.9352   0.9487   0.9600   0.9665   0.9737   0.9795
  0.9853   0.9962   0.9991   1.0030   1.0120   1.0286   1.0319   1.0541
  1.0698   1.0700   1.0817   1.0918   1.0934   1.0968   1.1095   1.1202
  1.1269   1.1372   1.1510   1.1543   1.1595   1.1662   1.1685   1.1718
  1.1792   1.1888   1.1997   1.2102   1.2128   1.2200   1.2287   1.2351
  1.2495   1.2663   1.2704   1.2847   1.2947   1.3019   1.3102   1.3248
  1.3337   1.3389   1.3439   1.3505   1.3594   1.3728   1.3834   1.3886
  1.3996   1.4012   1.4049   1.4110   1.4268   1.4353   1.4415   1.4474
  1.4500   1.4558   1.4613   1.4667   1.4719   1.4737   1.4812   1.4880
  1.4954   1.4996   1.5049   1.5083   1.5238   1.5360   1.5690   1.5900
  1.6091   1.6267   1.6482   1.6605   1.6774   1.6829   1.6942   1.7061
  1.7172   1.7300   1.7339   1.7494   1.7554   1.7631   1.7792   1.7814
  1.7895   1.7973   1.8036   1.8161   1.8213   1.8257   1.8351   1.8371
  1.8535   1.8608   1.8637   1.8657   1.8793   1.8826   1.8991   1.9025
  1.9046   1.9213   1.9282   1.9368   1.9420   1.9550   1.9685   1.9701
  1.9784   1.9795   1.9908   1.9953   2.0016   2.0109   2.0167   2.0202
  2.0281   2.0360   2.0396   2.0478   2.0535   2.0601   2.0694   2.0738
  2.0848   2.0959   2.0967   2.1044   2.1130   2.1227   2.1289   2.1435
  2.1465   2.1569   2.1583   2.1730   2.1762   2.1958   2.1987   2.2063
  2.2212   2.2330   2.2397   2.2567   2.2673   2.2819   2.2860   2.2970
  2.3018   2.3059   2.3143   2.3240   2.3259   2.3312   2.3494   2.3554
  2.3599   2.4148   2.4202   2.4240   2.4512   2.4663   2.4799   2.4998
  2.5206   2.5241   2.5575   2.5631   2.5740   2.5865   2.6062   2.6173
  2.6286   2.6425   2.6465   2.6575   2.6613   2.6675   2.6882   2.6920
  2.6961   2.7286   2.7390   2.7514   2.7594   2.7660   2.7720   2.7796
  2.7968   2.8215   2.8279   2.8434   2.8606   2.8883   2.9128   2.9334
  2.9355   2.9499   2.9702   2.9919   3.0238   3.0419   3.0471   3.0518
  3.0683   3.1220   3.1358   3.1512   3.1579   3.2400   3.3096   3.3292
  3.4403   3.4723   3.4819   4.0132   4.0757   4.0944   4.1075   4.1130
  4.1164   4.1275   4.1350   4.1631   4.1837   4.2019   4.2378   4.2844
  4.3099   4.3184   4.3399   4.3580   4.3643   4.3989   4.4450   4.4789
  4.5087   4.5340   4.5566   4.7158   4.7605   4.7924   4.8225   4.8570
  5.2870   5.6542
 --------------------------------------------------------------
 
          Ground-State Mulliken Net Atomic Charges

     Atom                 Charge (a.u.)
  ----------------------------------------
      1 C                    -0.224837
      2 O                    -0.437162
      3 C                     0.538798
      4 C                     0.071930
      5 C                     0.254766
      6 N                    -0.649723
      7 C                     0.291725
      8 C                    -0.210787
      9 C                    -0.012348
     10 C                     0.776978
     11 F                    -0.268319
     12 F                    -0.269901
     13 F                    -0.265417
     14 C                    -0.171639
     15 C                    -0.126725
     16 C                    -0.168719
     17 C                     0.287806
     18 C                    -0.168709
     19 C                    -0.205996
     20 C                     0.200250
     21 C                    -0.299808
     22 C                     0.541458
     23 F                    -0.235843
     24 F                    -0.248101
     25 C                    -0.205009
     26 C                    -0.172660
     27 C                    -0.167349
     28 C                    -0.128937
     29 C                    -0.133185
     30 C                    -0.172087
     31 O                    -0.482582
     32 H                     0.169617
     33 H                     0.179742
     34 H                     0.162758
     35 H                     0.169939
     36 H                     0.149804
     37 H                     0.144571
     38 H                     0.157697
     39 H                     0.152671
     40 H                     0.143373
     41 H                     0.160033
     42 H                     0.134455
     43 H                     0.150865
     44 H                     0.153130
     45 H                     0.139279
     46 H                     0.136416
     47 H                     0.157780
  ----------------------------------------
  Sum of atomic charges =     0.000000

 -----------------------------------------------------------------
                    Cartesian Multipole Moments
 -----------------------------------------------------------------
    Charge (ESU x 10^10)
                 0.0000
    Dipole Moment (Debye)
         X      -0.9199      Y       1.9582      Z       1.3646
       Tot       2.5579
    Quadrupole Moments (Debye-Ang)
        XX    -181.5147     XY      -0.9185     YY    -168.7769
        XZ      -0.2970     YZ      -0.4135     ZZ    -165.5072
    Octopole Moments (Debye-Ang^2)
       XXX      20.4944    XXY     -49.5985    XYY     -40.7066
       YYY      23.8207    XXZ      26.0106    XYZ       6.1832
       YYZ       4.9251    XZZ       2.2845    YZZ     -30.5630
       ZZZ     -50.2590
    Hexadecapole Moments (Debye-Ang^3)
      XXXX  -10193.5475   XXXY    -280.6054   XXYY   -2610.4682
      XYYY      36.8898   YYYY   -5536.1651   XXXZ      55.8738
      XXYZ     -19.7371   XYYZ     -22.6928   YYYZ      28.4482
      XXZZ   -1743.6751   XYZZ     -23.8234   YYZZ   -1183.6486
      XZZZ     -13.0985   YZZZ       3.0792   ZZZZ   -1271.7652
 -----------------------------------------------------------------
Archival summary:
1\1\nia1977.scinet.local\SP\ProcedureUnspecified\6-31G*\5212316\rhickman\MonFeb715:01:502022MonFeb715:01:502022\0\\#,ProcedureUnspecified,6-31G*,\\0,1\O\C,1,1.33994\O,2,1.20439,1,123.741\C,1,1.42086,2,116.217,3,1.5884,0\H,4,1.08677,1,106.576,2,165.93,0\H,4,1.0916,1,110.193,2,45.888,0\H,4,1.09168,1,110.074,2,-74.2509,0\C,2,1.48922,1,111.973,3,177.431,0\C,8,1.39101,2,117.132,1,-135.123,0\H,9,1.0794,8,118.299,2,-2.29871,0\C,9,1.38177,8,120.804,2,176.722,0\H,11,1.07862,9,120.149,8,-179.284,0\C,11,1.38665,9,119.505,8,0.654405,0\H,13,1.07948,11,120.132,9,-179.915,0\C,13,1.38088,11,120.315,9,1.31631,0\H,15,1.07996,13,120.307,11,178.13,0\C,15,1.39475,13,120.758,11,-1.33264,0\N,17,1.40168,15,119.465,13,177.442,0\C,18,1.39109,17,120.093,15,-137.627,0\C,19,1.39431,18,120.508,17,-146.71,0\H,20,1.07934,19,120.172,18,0.0808903,0\C,20,1.38533,19,119.84,18,178.745,0\C,22,1.38761,20,121.379,19,-0.147634,0\H,23,1.07793,22,120.427,20,-179.493,0\C,23,1.3858,22,118.593,20,0.401731,0\H,25,1.07849,23,119.672,22,179.75,0\C,25,1.38022,23,120.797,22,-0.142868,0\H,27,1.07959,25,119.863,23,179.693,0\C,18,1.39917,17,119.085,15,43.4556,0\C,29,1.39504,18,120.324,17,36.1412,0\H,30,1.07953,29,119.288,18,1.2794,0\C,30,1.37801,29,120.724,18,-179.316,0\H,32,1.07727,30,118.794,29,-179.524,0\C,29,1.39533,18,120.84,17,-143.193,0\H,34,1.07982,29,119.726,18,0.0195963,0\C,34,1.37724,29,120.24,18,179.635,0\H,36,1.0798,34,119.248,29,-179.857,0\C,32,1.39747,30,120.807,29,-0.214964,0\C,38,1.45171,32,123.697,30,-179.907,0\H,39,1.08053,38,116.477,32,178.065,0\C,39,1.32558,38,128.504,32,-2.09734,0\F,41,1.32834,39,128.051,38,-0.0898355,0\F,41,1.33186,39,123.095,38,-179.845,0\C,22,1.50101,20,117.344,19,-178.496,0\F,44,1.33802,22,113.761,20,-176.951,0\F,44,1.34661,22,112.241,20,-55.9906,0\F,44,1.34996,22,111.813,20,62.616,0\\\@

 Total job time:  211.57s(wall), 211.04s(cpu) 
 Mon Feb  7 15:01:50 2022

        *************************************************************
        *                                                           *
        *  Thank you very much for using Q-Chem.  Have a nice day.  *
        *                                                           *
        *************************************************************


