
Running Job 1 of 1 fragments/C159/conf-3/spe_input.inp
qchem fragments/C159/conf-3/spe_input.inp_273441.0 /gpfs/fs0/scratch/a/aspuru/rhickman/descriptor_computation/qchem273441/ 0
/scinet/niagara/software/commercial/qc52/exe/qcprog.exe_s fragments/C159/conf-3/spe_input.inp_273441.0 /gpfs/fs0/scratch/a/aspuru/rhickman/descriptor_computation/qchem273441/
                  Welcome to Q-Chem
     A Quantum Leap Into The Future Of Chemistry


 Q-Chem 5.2, Q-Chem, Inc., Pleasanton, CA (2019)

 License issued to: SRG Alan Aspuru-Guzik, University of Toronto

 Yihan Shao,  Zhengting Gan,  E. Epifanovsky,  A. T. B. Gilbert,  M. Wormit,  
 J. Kussmann,  A. W. Lange,  A. Behn,  Jia Deng,  Xintian Feng,  D. Ghosh,  
 M. Goldey,  P. R. Horn,  L. D. Jacobson,  I. Kaliman,  T. Kus,  A. Landau,  
 Jie Liu,  E. I. Proynov,  R. M. Richard,  R. P. Steele,  E. J. Sundstrom,  
 H. L. Woodcock III,  P. M. Zimmerman,  D. Zuev,  B. Albrecht,  E. Alguire,  
 S. A. Baeppler,  D. Barton,  Z. Benda,  Y. A. Bernard,  E. J. Berquist,  
 K. B. Bravaya,  H. Burton,  D. Casanova,  Chun-Min Chang,  Yunqing Chen,  
 A. Chien,  K. D. Closser,  M. P. Coons,  S. Coriani,  S. Dasgupta,  
 A. L. Dempwolff,  M. Diedenhofen,  Hainam Do,  R. G. Edgar,  Po-Tung Fang,  
 S. Faraji,  S. Fatehi,  Qingguo Feng,  K. D. Fenk,  J. Fosso-Tande,  
 J. Gayvert,  Qinghui Ge,  A. Ghysels,  G. Gidofalvi,  J. Gomes,  
 J. Gonthier,  A. Gunina,  D. Hait,  M. W. D. Hanson-Heine,  
 P. H. P. Harbach,  A. W. Hauser,  M. F. Herbst,  J. E. Herr,  
 E. G. Hohenstein,  Z. C. Holden,  Kerwin Hui,  B. C. Huynh,  T.-C. Jagau,  
 Hyunjun Ji,  B. Kaduk,  K. Khistyaev,  Jaehoon Kim,  P. Klunzinger,  K. Koh,  
 D. Kosenkov,  L. Koulias,  T. Kowalczyk,  C. M. Krauter,  A. Kunitsa,  
 Ka Un Lao,  A. Laurent,  K. V. Lawler,  Joonho Lee,  D. Lefrancois,  
 S. Lehtola,  D. S. Levine,  Yi-Pei Li,  You-Sheng Lin,  Fenglai Liu,  
 E. Livshits,  A. Luenser,  P. Manohar,  E. Mansoor,  S. F. Manzer,  
 Shan-Ping Mao,  Yuezhi Mao,  N. Mardirossian,  A. V. Marenich,  
 T. Markovich,  L. A. Martinez-Martinez,  S. A. Maurer,  N. J. Mayhall,  
 S. C. McKenzie,  J.-M. Mewes,  P. Morgante,  A. F. Morrison,  
 J. W. Mullinax,  K. Nanda,  T. S. Nguyen-Beck,  R. Olivares-Amaya,  
 J. A. Parkhill,  Zheng Pei,  T. M. Perrine,  F. Plasser,  P. Pokhilko,  
 S. Prager,  A. Prociuk,  E. Ramos,  D. R. Rehn,  F. Rob,  M. Scheurer,  
 M. Schneider,  N. Sergueev,  S. M. Sharada,  S. Sharma,  D. W. Small,  
 T. Stauch,  T. Stein,  Yu-Chuan Su,  A. J. W. Thom,  A. Tkatchenko,  
 T. Tsuchimochi,  N. M. Tubman,  L. Vogt,  M. L. Vidal,  O. Vydrov,  
 M. A. Watson,  J. Wenzel,  M. de Wergifosse,  T. A. Wesolowski,  A. White,  
 J. Witte,  A. Yamada,  Jun Yang,  K. Yao,  S. Yeganeh,  S. R. Yost,  
 Zhi-Qiang You,  A. Zech,  Igor Ying Zhang,  Xing Zhang,  Yan Zhao,  
 Ying Zhu,  B. R. Brooks,  G. K. L. Chan,  C. J. Cramer,  M. S. Gordon,  
 W. J. Hehre,  A. Klamt,  M. W. Schmidt,  C. D. Sherrill,  D. G. Truhlar,  
 A. Aspuru-Guzik,  R. Baer,  A. T. Bell,  N. A. Besley,  Jeng-Da Chai,  
 A. E. DePrince, III,  R. A. DiStasio Jr.,  A. Dreuw,  B. D. Dunietz,  
 T. R. Furlani,  Chao-Ping Hsu,  Yousung Jung,  Jing Kong,  D. S. Lambrecht,  
 WanZhen Liang,  C. Ochsenfeld,  V. A. Rassolov,  L. V. Slipchenko,  
 J. E. Subotnik,  T. Van Voorhis,  J. M. Herbert,  A. I. Krylov,  
 P. M. W. Gill,  M. Head-Gordon

 Contributors to earlier versions of Q-Chem not listed above: 
 R. D. Adamson,  B. Austin,  J. Baker,  G. J. O. Beran,  K. Brandhorst,  
 S. T. Brown,  E. F. C. Byrd,  A. K. Chakraborty,  C.-L. Cheng,  
 Siu Hung Chien,  D. M. Chipman,  D. L. Crittenden,  H. Dachsel,  
 R. J. Doerksen,  A. D. Dutoi,  L. Fusti-Molnar,  W. A. Goddard III,  
 A. Golubeva-Zadorozhnaya,  S. R. Gwaltney,  G. Hawkins,  A. Heyden,  
 S. Hirata,  G. Kedziora,  F. J. Keil,  C. Kelley,  Jihan Kim,  R. A. King,  
 R. Z. Khaliullin,  P. P. Korambath,  W. Kurlancheek,  A. M. Lee,  M. S. Lee,  
 S. V. Levchenko,  Ching Yeh Lin,  D. Liotard,  R. C. Lochan,  I. Lotan,  
 P. E. Maslen,  N. Nair,  D. P. O'Neill,  D. Neuhauser,  E. Neuscamman,  
 C. M. Oana,  R. Olson,  B. Peters,  R. Peverati,  P. A. Pieniazek,  
 Y. M. Rhee,  J. Ritchie,  M. A. Rohrdanz,  E. Rosta,  N. J. Russ,  
 H. F. Schaefer III,  N. E. Schultz,  N. Shenvi,  A. C. Simmonett,  A. Sodt,  
 D. Stuck,  K. S. Thanthiriwatte,  V. Vanovschi,  Tao Wang,  A. Warshel,  
 C. F. Williams,  Q. Wu,  X. Xu,  W. Zhang

 Please cite Q-Chem as follows:
 Y. Shao et al., Mol. Phys. 113, 184-215 (2015)
 DOI: 10.1080/00268976.2014.952696

 Q-Chem 5.2.1 for Intel X86 EM64T Linux

 Parts of Q-Chem use Armadillo 8.300.2 (Tropical Shenanigans).
 http://arma.sourceforge.net/

 Q-Chem begins on Mon Feb  7 09:58:38 2022  

Host: 
0

     Scratch files written to /gpfs/fs0/scratch/a/aspuru/rhickman/descriptor_computation/qchem273441//
 Jul1719 |scratch|qcdevops|jenkins|workspace|build_RNUM -1
Processing $rem in /scinet/niagara/software/commercial/qc52/config/preferences:
	 MEM_TOTAL  4000 
NAlpha2: 100
NElect   100
Mult     1

Checking the input file for inconsistencies... 	...done.

--------------------------------------------------------------
User input:
--------------------------------------------------------------
$molecule
0 1
C        -3.93840247350000   -1.69491782650000   -0.48121056450000
C        -3.60664174600000   -0.50847493900000    0.01430317820000
C        -2.26111134060000    0.03836836950000    0.09731547060000
C        -2.07037984630000    1.36320685610000    0.50749617840000
N        -0.90231648940000    1.96230332990000    0.55373393790000
C         0.19849960970000    1.29105029440000    0.22603771380000
C         1.42573004950000    2.07866137740000    0.18324563730000
C         2.42593573250000    1.87315610330000   -0.66277076280000
C         0.13870345010000   -0.07844489970000   -0.09021739750000
C         1.34792047310000   -0.92109357030000   -0.28751962820000
O         1.51408016220000   -1.67792857020000   -1.21049774780000
O         2.20484971030000   -0.78344039090000    0.73317948040000
C         3.40445438480000   -1.53864813040000    0.65769891180000
C        -1.10328388430000   -0.68831159970000   -0.18118612640000
H        -4.96351930150000   -2.02147642010000   -0.51055705590000
H        -3.21220455950000   -2.38147006010000   -0.88151561960000
H        -4.38196288650000    0.14855206180000    0.38880155670000
H        -2.91543612500000    1.97412457960000    0.80143839280000
H         1.43393447040000    2.92451777110000    0.85630820520000
H         2.40948419730000    1.07698760190000   -1.38973441840000
H         3.29455469430000    2.50921535650000   -0.67266241340000
H         3.82309438590000   -1.55178704150000    1.66073473870000
H         4.10119119100000   -1.06385505760000   -0.03669886320000
H         3.19388631500000   -2.55275118510000    0.31172082720000
H        -1.15075609150000   -1.73390202370000   -0.44578922260000
$end

$rem
BASIS = 6-31G*
GUI = 2
METHOD = B3LYP
PRINT_ORBITALS false
MOLDEN_FORMAT false
--------------------------------------------------------------
 ----------------------------------------------------------------
             Standard Nuclear Orientation (Angstroms)
    I     Atom           X                Y                Z
 ----------------------------------------------------------------
    1      C       3.9985716255    -1.6130676075     0.2140923950
    2      C       3.6266281084    -0.3829636387    -0.1201949377
    3      C       2.2654162857     0.1303261016    -0.1161043621
    4      C       2.0319345183     1.4907682593    -0.3495719859
    5      N       0.8472286868     2.0563249127    -0.3043582087
    6      C      -0.2294792673     1.3164956567    -0.0531328305
    7      C      -1.4771440181     2.0557253140     0.1053888259
    8      C      -2.4581273420     1.7138151720     0.9294984959
    9      C      -0.1270865599    -0.0799641590     0.0829762408
   10      C      -1.3094302943    -0.9760872295     0.1840578777
   11      O      -1.4404006902    -1.8499528456     1.0035104443
   12      O      -2.1854814226    -0.7334082612    -0.8001901218
   13      C      -3.3625080244    -1.5268960651    -0.8087285614
   14      C       1.1324936696    -0.6597858176     0.0798569525
   15      H       5.0326301224    -1.9104883692     0.1889894445
   16      H       3.2978373613    -2.3664222307     0.5309359207
   17      H       4.3776731840     0.3392432884    -0.4158380250
   18      H       2.8551942260     2.1589470629    -0.5721099481
   19      H      -1.5190464864     2.9805587375    -0.4527159077
   20      H      -2.4085192947     0.8315400799     1.5473664395
   21      H      -3.3436905271     2.3175678009     1.0316196368
   22      H      -3.7960600217    -1.4231119625    -1.8000783873
   23      H      -4.0612640188    -1.1660496224    -0.0507121935
   24      H      -3.1187547951    -2.5704773994    -0.5990451942
   25      H       1.2128441350    -1.7288888355     0.2067044339
 ----------------------------------------------------------------
 Molecular Point Group                 C1    NOp =  1
 Largest Abelian Subgroup              C1    NOp =  1
 Nuclear Repulsion Energy =         844.68419473 hartrees
 There are       50 alpha and       50 beta electrons
 Requested basis set is 6-31G(d)
 There are 78 shells and 232 basis functions

 Total QAlloc Memory Limit   4000 MB
 Mega-Array Size       188 MB
 MEM_STATIC part       192 MB
 A cutoff of  1.0D-08 yielded   1976 shell pairs
 There are     19545 function pairs
 Smallest overlap matrix eigenvalue = 5.66E-04

 Scale SEOQF with 1.000000e-01/1.000000e-01/1.000000e-01

 Standard Electronic Orientation quadrupole field applied
 Nucleus-field energy     =     0.0000000311 hartrees
 Guess from superposition of atomic densities
 Warning:  Energy on first SCF cycle will be non-variational
 SAD guess density has 100.000000 electrons

 -----------------------------------------------------------------------
  General SCF calculation program by
  Eric Jon Sundstrom, Paul Horn, Yuezhi Mao, Dmitri Zuev, Alec White,
  David Stuck, Shaama M.S., Shane Yost, Joonho Lee, David Small,
  Daniel Levine, Susi Lehtola, Hugh Burton, Evgeny Epifanovsky,
  Bang C. Huynh
 -----------------------------------------------------------------------
 Exchange:     0.2000 Hartree-Fock + 0.0800 Slater + 0.7200 B88
 Correlation:  0.1900 VWN1RPA + 0.8100 LYP
 Using SG-1 standard quadrature grid
 A restricted SCF calculation will be
 performed using DIIS
 SCF converges when DIIS error is below 1.0e-05
 ---------------------------------------
  Cycle       Energy         DIIS error
 ---------------------------------------
    1    -634.1366655103      5.38e-02  
    2    -630.7273682534      5.99e-03  
    3    -630.5037722561      9.10e-03  
    4    -630.9153029998      2.44e-03  
    5    -630.9485223932      5.65e-04  
    6    -630.9498544947      2.54e-04  
    7    -630.9501955454      5.84e-05  
    8    -630.9502126752      2.89e-05  
    9    -630.9502182396      5.92e-06  Convergence criterion met
 ---------------------------------------
 SCF time:   CPU 40.86s  wall 41.00s 
 SCF   energy in the final basis set =     -630.9502182396
 Total energy in the final basis set =     -630.9502182396
 
 --------------------------------------------------------------
 
                    Orbital Energies (a.u.)
 --------------------------------------------------------------
 
 Alpha MOs
 -- Occupied --
-19.1945 -19.1398 -14.3316 -10.3199 -10.2409 -10.2374 -10.2270 -10.2142
-10.2133 -10.2099 -10.2015 -10.1928 -10.1908 -10.1887  -1.1128  -1.0230
 -0.9589  -0.8358  -0.8194  -0.7807  -0.7440  -0.7304  -0.6633  -0.6500
 -0.5891  -0.5861  -0.5662  -0.5260  -0.5180  -0.5006  -0.4860  -0.4748
 -0.4702  -0.4435  -0.4347  -0.4269  -0.4153  -0.4113  -0.4012  -0.3975
 -0.3682  -0.3607  -0.3544  -0.3332  -0.3074  -0.2993  -0.2795  -0.2732
 -0.2548  -0.2283
 -- Virtual --
 -0.0590  -0.0380   0.0119   0.0216   0.0735   0.1037   0.1086   0.1117
  0.1265   0.1375   0.1470   0.1509   0.1593   0.1695   0.1769   0.1929
  0.1970   0.2060   0.2560   0.2669   0.2753   0.2992   0.3206   0.3230
  0.3502   0.3632   0.3942   0.3964   0.4426   0.4467   0.4552   0.4934
  0.5049   0.5134   0.5274   0.5311   0.5399   0.5543   0.5562   0.5680
  0.5784   0.5813   0.5980   0.6139   0.6201   0.6297   0.6482   0.6514
  0.6612   0.6786   0.6792   0.6815   0.7008   0.7073   0.7531   0.7680
  0.7857   0.8091   0.8192   0.8275   0.8367   0.8505   0.8614   0.8670
  0.8716   0.8747   0.8833   0.8878   0.8971   0.9211   0.9350   0.9579
  0.9667   0.9725   0.9934   1.0101   1.0253   1.0525   1.0693   1.0790
  1.0905   1.1094   1.1118   1.1308   1.1508   1.1865   1.2108   1.2328
  1.2541   1.2687   1.2966   1.3185   1.3346   1.3635   1.4124   1.4231
  1.4526   1.4597   1.4747   1.4945   1.5132   1.5177   1.5433   1.5775
  1.6313   1.6435   1.6625   1.6692   1.6839   1.7019   1.7203   1.7700
  1.7949   1.8139   1.8240   1.8467   1.8628   1.8907   1.8955   1.9467
  1.9629   1.9805   1.9961   2.0105   2.0206   2.0323   2.0532   2.1030
  2.1225   2.1270   2.1419   2.1489   2.1685   2.1774   2.2221   2.2323
  2.2737   2.2863   2.3110   2.3163   2.3374   2.3562   2.3699   2.3826
  2.4166   2.4411   2.4953   2.5182   2.5657   2.5779   2.6045   2.6323
  2.6454   2.6846   2.7015   2.7261   2.7597   2.7847   2.8639   2.8790
  2.9227   2.9500   2.9718   3.0515   3.0991   3.1387   3.2838   3.4676
  4.0008   4.0724   4.0936   4.1331   4.1496   4.1828   4.2169   4.2239
  4.2612   4.2860   4.3677   4.4693   4.5364   4.7478
 --------------------------------------------------------------
 
          Ground-State Mulliken Net Atomic Charges

     Atom                 Charge (a.u.)
  ----------------------------------------
      1 C                    -0.347875
      2 C                    -0.116172
      3 C                     0.144367
      4 C                    -0.009748
      5 N                    -0.481396
      6 C                     0.257889
      7 C                    -0.075204
      8 C                    -0.349905
      9 C                     0.066236
     10 C                     0.500996
     11 O                    -0.480039
     12 O                    -0.421680
     13 C                    -0.223831
     14 C                    -0.177247
     15 H                     0.151464
     16 H                     0.150930
     17 H                     0.135561
     18 H                     0.144019
     19 H                     0.150723
     20 H                     0.162976
     21 H                     0.151070
     22 H                     0.167893
     23 H                     0.162604
     24 H                     0.176839
     25 H                     0.159531
  ----------------------------------------
  Sum of atomic charges =     0.000000

 -----------------------------------------------------------------
                    Cartesian Multipole Moments
 -----------------------------------------------------------------
    Charge (ESU x 10^10)
                 0.0000
    Dipole Moment (Debye)
         X      -0.2181      Y      -0.6494      Z      -1.1370
       Tot       1.3275
    Quadrupole Moments (Debye-Ang)
        XX     -63.8657     XY      -1.9825     YY     -82.7258
        XZ       1.5406     YZ       3.3084     ZZ     -83.9990
    Octopole Moments (Debye-Ang^2)
       XXX     -22.3329    XXY      -8.0882    XYY      -7.3058
       YYY     -19.8195    XXZ      -8.5952    XYZ     -13.0061
       YYZ      -8.8332    XZZ     -12.0449    YZZ      -0.4896
       ZZZ      -3.9420
    Hexadecapole Moments (Debye-Ang^3)
      XXXX   -2389.5294   XXXY      41.0562   XXYY    -560.3099
      XYYY     -15.9924   YYYY   -1083.8363   XXXZ       3.7173
      XXYZ      11.8200   XYYZ      24.8578   YYYZ       3.5384
      XXZZ    -499.1399   XYZZ      12.1676   YYZZ    -227.1593
      XZZZ      11.6090   YZZZ      -0.1029   ZZZZ    -224.9825
 -----------------------------------------------------------------
Archival summary:
1\1\nia0231.scinet.local\SP\ProcedureUnspecified\6-31G*\211111\rhickman\MonFeb709:59:202022MonFeb709:59:202022\0\\#,ProcedureUnspecified,6-31G*,\\0,1\O\C,1,1.33981\O,2,1.20511,1,124.042\C,1,1.41954,2,116.444,3,3.35669,0\H,4,1.08697,1,106.43,2,-163.194,0\H,4,1.09199,1,110.362,2,-42.8841,0\H,4,1.09227,1,109.974,2,77.3838,0\C,2,1.48701,1,111.15,3,176.8,0\C,8,1.38663,2,118.062,1,-127.263,0\H,9,1.0796,8,118.779,2,-3.42622,0\C,9,1.39506,8,120.078,2,175.083,0\C,11,1.39994,9,116,8,-2.22649,0\H,12,1.08339,11,120.455,9,-176.183,0\N,12,1.31355,11,124.27,9,4.70199,0\C,14,1.33032,12,119.803,11,-1.60401,0\C,11,1.45478,9,124.085,8,179.251,0\H,16,1.08308,11,114.477,9,172.278,0\C,16,1.32787,11,126.032,9,-8.60675,0\H,18,1.07627,16,121.281,11,-179.617,0\H,18,1.07655,16,122.686,11,-0.0943519,0\C,15,1.45885,14,115.525,12,174.236,0\H,21,1.081,15,114.241,14,29.1192,0\C,21,1.32604,15,124.72,14,-145.884,0\H,23,1.07665,21,121.523,15,177.76,0\H,23,1.07825,21,122.213,15,-1.00409,0\\\@

 Total job time:  41.20s(wall), 41.06s(cpu) 
 Mon Feb  7 09:59:20 2022

        *************************************************************
        *                                                           *
        *  Thank you very much for using Q-Chem.  Have a nice day.  *
        *                                                           *
        *************************************************************


