28
 energy: -41.864534824968 gnorm: 0.000041288753 xtb: 6.4.1 (23d549d)
C         4.57658932880000   -0.02050623650000    2.09633031350000
C         3.29959003200000   -0.16857164830000    1.76819151630000
C         2.68898537750000    0.15170054660000    0.48151750840000
C         3.39217663210000    0.67718393540000   -0.60698803000000
C         2.70226679190000    0.94833428630000   -1.77410514300000
C         1.34447751390000    0.68411298270000   -1.83488980000000
C         0.72257849610000    0.15161503090000   -0.70373242310000
C        -0.72243729370000   -0.15300412780000   -0.70373183310000
C        -1.34488525640000   -0.68387960170000   -1.83535030670000
C        -2.70290143740000   -0.94699159380000   -1.77469886510000
C        -3.39249726510000   -0.67633385940000   -0.60727477440000
C        -2.68870806010000   -0.15274672490000    0.48175722720000
C        -3.29881938830000    0.16669478110000    1.76886514650000
C        -4.57687377210000    0.02418121920000    2.09539597230000
N        -1.38399151220000    0.09600037230000    0.41504345350000
N         1.38450615690000   -0.09825634720000    0.41463140660000
H         4.93576719030000   -0.28435987160000    3.07637814690000
H         5.31593403360000    0.36553229720000    1.41466885970000
H         2.59075949920000   -0.55986376200000    2.48492050420000
H         4.45022252760000    0.87296700430000   -0.53991169270000
H         3.21630136790000    1.36440356480000   -2.62952541640000
H         0.77633863760000    0.90482394660000   -2.72540812370000
H        -0.77704041900000   -0.90419390890000   -2.72615736400000
H        -3.21736516830000   -1.36178398390000   -2.63048473630000
H        -4.45069933310000   -0.87132006320000   -0.54028399660000
H        -2.58874416410000    0.55267645910000    2.48722935550000
H        -5.31753956580000   -0.35593373040000    1.41185876680000
H        -4.93562507540000    0.28708400350000    3.07584942050000
