
Running Job 1 of 1 fragments/C042/conf-0/spe_input.inp
qchem fragments/C042/conf-0/spe_input.inp_360104.0 /gpfs/fs0/scratch/a/aspuru/rhickman/descriptor_computation/qchem360104/ 0
/scinet/niagara/software/commercial/qc52/exe/qcprog.exe_s fragments/C042/conf-0/spe_input.inp_360104.0 /gpfs/fs0/scratch/a/aspuru/rhickman/descriptor_computation/qchem360104/
                  Welcome to Q-Chem
     A Quantum Leap Into The Future Of Chemistry


 Q-Chem 5.2, Q-Chem, Inc., Pleasanton, CA (2019)

 License issued to: SRG Alan Aspuru-Guzik, University of Toronto

 Yihan Shao,  Zhengting Gan,  E. Epifanovsky,  A. T. B. Gilbert,  M. Wormit,  
 J. Kussmann,  A. W. Lange,  A. Behn,  Jia Deng,  Xintian Feng,  D. Ghosh,  
 M. Goldey,  P. R. Horn,  L. D. Jacobson,  I. Kaliman,  T. Kus,  A. Landau,  
 Jie Liu,  E. I. Proynov,  R. M. Richard,  R. P. Steele,  E. J. Sundstrom,  
 H. L. Woodcock III,  P. M. Zimmerman,  D. Zuev,  B. Albrecht,  E. Alguire,  
 S. A. Baeppler,  D. Barton,  Z. Benda,  Y. A. Bernard,  E. J. Berquist,  
 K. B. Bravaya,  H. Burton,  D. Casanova,  Chun-Min Chang,  Yunqing Chen,  
 A. Chien,  K. D. Closser,  M. P. Coons,  S. Coriani,  S. Dasgupta,  
 A. L. Dempwolff,  M. Diedenhofen,  Hainam Do,  R. G. Edgar,  Po-Tung Fang,  
 S. Faraji,  S. Fatehi,  Qingguo Feng,  K. D. Fenk,  J. Fosso-Tande,  
 J. Gayvert,  Qinghui Ge,  A. Ghysels,  G. Gidofalvi,  J. Gomes,  
 J. Gonthier,  A. Gunina,  D. Hait,  M. W. D. Hanson-Heine,  
 P. H. P. Harbach,  A. W. Hauser,  M. F. Herbst,  J. E. Herr,  
 E. G. Hohenstein,  Z. C. Holden,  Kerwin Hui,  B. C. Huynh,  T.-C. Jagau,  
 Hyunjun Ji,  B. Kaduk,  K. Khistyaev,  Jaehoon Kim,  P. Klunzinger,  K. Koh,  
 D. Kosenkov,  L. Koulias,  T. Kowalczyk,  C. M. Krauter,  A. Kunitsa,  
 Ka Un Lao,  A. Laurent,  K. V. Lawler,  Joonho Lee,  D. Lefrancois,  
 S. Lehtola,  D. S. Levine,  Yi-Pei Li,  You-Sheng Lin,  Fenglai Liu,  
 E. Livshits,  A. Luenser,  P. Manohar,  E. Mansoor,  S. F. Manzer,  
 Shan-Ping Mao,  Yuezhi Mao,  N. Mardirossian,  A. V. Marenich,  
 T. Markovich,  L. A. Martinez-Martinez,  S. A. Maurer,  N. J. Mayhall,  
 S. C. McKenzie,  J.-M. Mewes,  P. Morgante,  A. F. Morrison,  
 J. W. Mullinax,  K. Nanda,  T. S. Nguyen-Beck,  R. Olivares-Amaya,  
 J. A. Parkhill,  Zheng Pei,  T. M. Perrine,  F. Plasser,  P. Pokhilko,  
 S. Prager,  A. Prociuk,  E. Ramos,  D. R. Rehn,  F. Rob,  M. Scheurer,  
 M. Schneider,  N. Sergueev,  S. M. Sharada,  S. Sharma,  D. W. Small,  
 T. Stauch,  T. Stein,  Yu-Chuan Su,  A. J. W. Thom,  A. Tkatchenko,  
 T. Tsuchimochi,  N. M. Tubman,  L. Vogt,  M. L. Vidal,  O. Vydrov,  
 M. A. Watson,  J. Wenzel,  M. de Wergifosse,  T. A. Wesolowski,  A. White,  
 J. Witte,  A. Yamada,  Jun Yang,  K. Yao,  S. Yeganeh,  S. R. Yost,  
 Zhi-Qiang You,  A. Zech,  Igor Ying Zhang,  Xing Zhang,  Yan Zhao,  
 Ying Zhu,  B. R. Brooks,  G. K. L. Chan,  C. J. Cramer,  M. S. Gordon,  
 W. J. Hehre,  A. Klamt,  M. W. Schmidt,  C. D. Sherrill,  D. G. Truhlar,  
 A. Aspuru-Guzik,  R. Baer,  A. T. Bell,  N. A. Besley,  Jeng-Da Chai,  
 A. E. DePrince, III,  R. A. DiStasio Jr.,  A. Dreuw,  B. D. Dunietz,  
 T. R. Furlani,  Chao-Ping Hsu,  Yousung Jung,  Jing Kong,  D. S. Lambrecht,  
 WanZhen Liang,  C. Ochsenfeld,  V. A. Rassolov,  L. V. Slipchenko,  
 J. E. Subotnik,  T. Van Voorhis,  J. M. Herbert,  A. I. Krylov,  
 P. M. W. Gill,  M. Head-Gordon

 Contributors to earlier versions of Q-Chem not listed above: 
 R. D. Adamson,  B. Austin,  J. Baker,  G. J. O. Beran,  K. Brandhorst,  
 S. T. Brown,  E. F. C. Byrd,  A. K. Chakraborty,  C.-L. Cheng,  
 Siu Hung Chien,  D. M. Chipman,  D. L. Crittenden,  H. Dachsel,  
 R. J. Doerksen,  A. D. Dutoi,  L. Fusti-Molnar,  W. A. Goddard III,  
 A. Golubeva-Zadorozhnaya,  S. R. Gwaltney,  G. Hawkins,  A. Heyden,  
 S. Hirata,  G. Kedziora,  F. J. Keil,  C. Kelley,  Jihan Kim,  R. A. King,  
 R. Z. Khaliullin,  P. P. Korambath,  W. Kurlancheek,  A. M. Lee,  M. S. Lee,  
 S. V. Levchenko,  Ching Yeh Lin,  D. Liotard,  R. C. Lochan,  I. Lotan,  
 P. E. Maslen,  N. Nair,  D. P. O'Neill,  D. Neuhauser,  E. Neuscamman,  
 C. M. Oana,  R. Olson,  B. Peters,  R. Peverati,  P. A. Pieniazek,  
 Y. M. Rhee,  J. Ritchie,  M. A. Rohrdanz,  E. Rosta,  N. J. Russ,  
 H. F. Schaefer III,  N. E. Schultz,  N. Shenvi,  A. C. Simmonett,  A. Sodt,  
 D. Stuck,  K. S. Thanthiriwatte,  V. Vanovschi,  Tao Wang,  A. Warshel,  
 C. F. Williams,  Q. Wu,  X. Xu,  W. Zhang

 Please cite Q-Chem as follows:
 Y. Shao et al., Mol. Phys. 113, 184-215 (2015)
 DOI: 10.1080/00268976.2014.952696

 Q-Chem 5.2.1 for Intel X86 EM64T Linux

 Parts of Q-Chem use Armadillo 8.300.2 (Tropical Shenanigans).
 http://arma.sourceforge.net/

 Q-Chem begins on Tue Feb  8 16:39:20 2022  

Host: 
0

     Scratch files written to /gpfs/fs0/scratch/a/aspuru/rhickman/descriptor_computation/qchem360104//
 Jul1719 |scratch|qcdevops|jenkins|workspace|build_RNUM -1
Processing $rem in /scinet/niagara/software/commercial/qc52/config/preferences:
	 MEM_TOTAL  4000 
NAlpha2: 86
NElect   86
Mult     1

Checking the input file for inconsistencies... 	...done.

--------------------------------------------------------------
User input:
--------------------------------------------------------------
$molecule
0 1
C         3.68971187700000    1.03756671740000    0.04298319230000
C         2.87170715540000   -0.00863343700000    0.00372028980000
C         1.41804059240000    0.01929089730000   -0.00295848350000
C         0.67336012530000    1.19688106110000   -0.00342990020000
C        -0.70967630880000    1.19520528910000   -0.01120293460000
O        -1.41394632240000    2.36509106860000   -0.01123317490000
C        -1.41807330690000   -0.01946848620000   -0.01598587760000
C        -2.87180625120000    0.00779513060000   -0.02412947600000
C        -3.68874759450000   -1.03581665070000    0.06813319410000
C        -0.67354930420000   -1.19705203380000   -0.01868849240000
C         0.70954344770000   -1.19538759070000   -0.01286619820000
O         1.41345890200000   -2.36548655780000   -0.01711305120000
H         4.75809863210000    0.90761166680000    0.04505072570000
H         3.34299957800000    2.05644773270000    0.07638357220000
H         3.28974037550000   -1.00528419700000   -0.02412716380000
H         1.19183060650000    2.14547225200000    0.00009842680000
H        -0.79839260580000    3.10735939950000   -0.00829796170000
H        -3.29025566830000    1.00124196150000   -0.10683559710000
H        -3.34038868930000   -2.04996553160000    0.16636593790000
H        -4.75731527020000   -0.90820418990000    0.05350441690000
H        -1.19230310550000   -2.14545069150000   -0.03131463020000
H         0.79764070990000   -3.10748950400000   -0.02563721310000
$end

$rem
BASIS = 6-31G*
GUI = 2
METHOD = B3LYP
PRINT_ORBITALS false
MOLDEN_FORMAT false
--------------------------------------------------------------
 ----------------------------------------------------------------
             Standard Nuclear Orientation (Angstroms)
    I     Atom           X                Y                Z
 ----------------------------------------------------------------
    1      C       3.7209033354    -0.9193771166    -0.0427550096
    2      C       2.8699620735     0.1001950126    -0.0030095034
    3      C       1.4179251522     0.0259366089     0.0037224770
    4      C       0.7111668805    -1.1747967334     0.0037252723
    5      C      -0.6712194556    -1.2172187334     0.0115609679
    6      O      -1.3378334714    -2.4089630655     0.0111240610
    7      C      -1.4179819555    -0.0257495154     0.0168934243
    8      C      -2.8701062036    -0.0993502758     0.0250905142
    9      C      -3.7199097816     0.9177245483    -0.0666906911
   10      C      -0.7113796724     1.1749708780     0.0200646643
   11      C       0.6710627055     1.2174051683     0.0141797111
   12      O       1.3373157951     2.4093494595     0.0188938176
   13      H       4.7846036607    -0.7554252253    -0.0448150003
   14      H       3.4068490250    -1.9487797011    -0.0765741795
   15      H       3.2560094636     1.1096548381     0.0252440701
   16      H       1.2596163143    -2.1063743769    -0.0002306370
   17      H      -0.6989280491    -3.1312278208     0.0078448670
   18      H      -3.2566652742    -1.1056680147     0.1073918897
   19      H      -3.4040665155     1.9425057964    -0.1645067237
   20      H      -4.7838648883     0.7561029538    -0.0520684510
   21      H      -1.2601056131     2.1063431902     0.0331183143
   22      H       0.6981548187     3.1313381598     0.0277618585
 ----------------------------------------------------------------
 Molecular Point Group                 C1    NOp =  1
 Largest Abelian Subgroup              C1    NOp =  1
 Nuclear Repulsion Energy =         651.58916549 hartrees
 There are       43 alpha and       43 beta electrons
 Requested basis set is 6-31G(d)
 There are 68 shells and 200 basis functions

 Total QAlloc Memory Limit   4000 MB
 Mega-Array Size       188 MB
 MEM_STATIC part       192 MB
 A cutoff of  1.0D-08 yielded   1656 shell pairs
 There are     15491 function pairs
 Smallest overlap matrix eigenvalue = 3.12E-04

 Scale SEOQF with 1.000000e-01/1.000000e-01/1.000000e+00

 Standard Electronic Orientation quadrupole field applied
 Nucleus-field energy     =     0.0000000277 hartrees
 Guess from superposition of atomic densities
 Warning:  Energy on first SCF cycle will be non-variational
 SAD guess density has 86.000000 electrons

 -----------------------------------------------------------------------
  General SCF calculation program by
  Eric Jon Sundstrom, Paul Horn, Yuezhi Mao, Dmitri Zuev, Alec White,
  David Stuck, Shaama M.S., Shane Yost, Joonho Lee, David Small,
  Daniel Levine, Susi Lehtola, Hugh Burton, Evgeny Epifanovsky,
  Bang C. Huynh
 -----------------------------------------------------------------------
 Exchange:     0.2000 Hartree-Fock + 0.0800 Slater + 0.7200 B88
 Correlation:  0.1900 VWN1RPA + 0.8100 LYP
 Using SG-1 standard quadrature grid
 A restricted SCF calculation will be
 performed using DIIS
 SCF converges when DIIS error is below 1.0e-05
 ---------------------------------------
  Cycle       Energy         DIIS error
 ---------------------------------------
    1    -540.2593384491      5.78e-02  
    2    -537.2729291197      6.44e-03  
    3    -537.2671045015      6.84e-03  
    4    -537.4701351129      1.07e-03  
    5    -537.4747625358      3.12e-04  
    6    -537.4751679753      1.30e-04  
    7    -537.4752512281      2.92e-05  
    8    -537.4752549008      1.03e-05  
    9    -537.4752554105      1.59e-06  Convergence criterion met
 ---------------------------------------
 SCF time:   CPU 26.48s  wall 26.00s 
 SCF   energy in the final basis set =     -537.4752554105
 Total energy in the final basis set =     -537.4752554105
 
 --------------------------------------------------------------
 
                    Orbital Energies (a.u.)
 --------------------------------------------------------------
 
 Alpha MOs
 -- Occupied --
-19.1784 -19.1784 -10.2447 -10.2446 -10.1949 -10.1948 -10.1877 -10.1876
-10.1842 -10.1841 -10.1758 -10.1757  -1.0627  -1.0616  -0.8602  -0.8068
 -0.7633  -0.7371  -0.7162  -0.6576  -0.6165  -0.5779  -0.5609  -0.5587
 -0.5249  -0.4875  -0.4548  -0.4508  -0.4395  -0.4368  -0.4222  -0.4068
 -0.3946  -0.3916  -0.3716  -0.3579  -0.3524  -0.3285  -0.3226  -0.3153
 -0.2588  -0.2252  -0.1935
 -- Virtual --
 -0.0463   0.0247   0.0276   0.0582   0.0750   0.0995   0.1041   0.1185
  0.1366   0.1422   0.1739   0.2025   0.2049   0.2148   0.2211   0.2593
  0.2859   0.3034   0.3098   0.3254   0.3591   0.3631   0.3856   0.4150
  0.4426   0.4663   0.5076   0.5136   0.5305   0.5348   0.5395   0.5683
  0.5718   0.5842   0.5912   0.5970   0.6184   0.6294   0.6325   0.6377
  0.6481   0.6622   0.6901   0.6990   0.7097   0.7284   0.7286   0.7412
  0.7778   0.8241   0.8291   0.8305   0.8528   0.8665   0.8906   0.8967
  0.9052   0.9106   0.9280   0.9617   0.9637   0.9674   0.9848   0.9920
  1.0039   1.0133   1.0625   1.0800   1.0916   1.1332   1.1622   1.1752
  1.1825   1.2289   1.2549   1.2835   1.2926   1.3273   1.3565   1.3781
  1.3829   1.3994   1.4002   1.4105   1.4400   1.4934   1.5053   1.5093
  1.5173   1.5527   1.6746   1.6810   1.6854   1.7029   1.7158   1.7371
  1.7483   1.7822   1.8273   1.8490   1.8639   1.8885   1.9051   1.9332
  1.9341   1.9907   1.9959   2.0137   2.0162   2.0402   2.1125   2.1275
  2.1341   2.1512   2.2189   2.2354   2.2488   2.2501   2.2870   2.3387
  2.3675   2.3881   2.3891   2.4345   2.4414   2.4488   2.4633   2.5127
  2.5643   2.6126   2.6191   2.6258   2.6842   2.7056   2.7280   2.7750
  2.8257   2.8359   2.9221   2.9788   3.0217   3.0408   3.1226   3.3011
  3.4754   3.9742   3.9988   4.0999   4.1084   4.1631   4.1787   4.2347
  4.2783   4.4124   4.4563   4.5518   4.8710
 --------------------------------------------------------------
 
          Ground-State Mulliken Net Atomic Charges

     Atom                 Charge (a.u.)
  ----------------------------------------
      1 C                    -0.353815
      2 C                    -0.105466
      3 C                     0.138819
      4 C                    -0.281148
      5 C                     0.297113
      6 O                    -0.654331
      7 C                     0.138305
      8 C                    -0.105362
      9 C                    -0.353518
     10 C                    -0.281031
     11 C                     0.296839
     12 O                    -0.654406
     13 H                     0.143916
     14 H                     0.134112
     15 H                     0.155443
     16 H                     0.114429
     17 H                     0.411063
     18 H                     0.155297
     19 H                     0.134181
     20 H                     0.143903
     21 H                     0.114575
     22 H                     0.411081
  ----------------------------------------
  Sum of atomic charges =     0.000000

 -----------------------------------------------------------------
                    Cartesian Multipole Moments
 -----------------------------------------------------------------
    Charge (ESU x 10^10)
                 0.0000
    Dipole Moment (Debye)
         X      -0.0047      Y       0.0005      Z       0.0249
       Tot       0.0253
    Quadrupole Moments (Debye-Ang)
        XX     -70.5526     XY      -5.5014     YY     -54.2886
        XZ      -0.0629     YZ      -0.0471     ZZ     -74.2757
    Octopole Moments (Debye-Ang^2)
       XXX      -0.0562    XXY       0.0223    XYY       0.0418
       YYY      -0.0346    XXZ      -0.0378    XYZ       0.9705
       YYZ       0.0196    XZZ      -0.0668    YZZ       0.0221
       ZZZ       0.3017
    Hexadecapole Moments (Debye-Ang^3)
      XXXX   -1996.2717   XXXY       7.3408   XXYY    -504.6463
      XYYY       1.2513   YYYY    -589.8265   XXXZ      -0.9954
      XXYZ      -1.5936   XYYZ       0.4577   YYYZ       0.7584
      XXZZ    -407.4260   XYZZ      14.7159   YYZZ    -154.8325
      XZZZ      -0.0128   YZZZ       0.0516   ZZZZ     -73.2829
 -----------------------------------------------------------------
Archival summary:
1\1\nia2015.scinet.local\SP\ProcedureUnspecified\6-31G*\21010\rhickman\TueFeb816:39:462022TueFeb816:39:462022\0\\#,ProcedureUnspecified,6-31G*,\\0,1\C\O,1,1.36551\H,2,0.964301,1,109.284\C,1,1.38306,2,120.978,3,0.189613,0\H,4,1.08104,1,118.73,2,-0.155096,0\C,4,1.39329,1,122.238,2,179.988,0\C,1,1.40616,2,118.701,3,-179.962,0\C,7,1.39321,1,117.446,2,179.868,0\H,8,1.08108,7,119.019,1,-179.458,0\C,8,1.38311,7,122.233,1,0.19334,0\O,10,1.36552,8,120.96,7,-179.931,0\H,11,0.964299,10,109.28,8,0.086078,0\C,6,1.45395,4,123.409,1,179.934,0\H,13,1.08113,6,113.839,4,-178.42,0\C,13,1.32861,6,126.911,4,1.76995,0\H,15,1.07626,13,121.075,6,179.949,0\H,15,1.07677,13,123.214,6,0.0731093,0\C,7,1.45401,1,119.177,2,0.150571,0\H,18,1.08115,7,113.868,1,4.70017,0\C,18,1.32854,7,126.847,1,-174.736,0\H,20,1.07626,18,121.093,7,179.926,0\H,20,1.0768,18,123.177,7,0.26179,0\\\@

 Total job time:  26.73s(wall), 26.63s(cpu) 
 Tue Feb  8 16:39:46 2022

        *************************************************************
        *                                                           *
        *  Thank you very much for using Q-Chem.  Have a nice day.  *
        *                                                           *
        *************************************************************


