17
 energy: -24.378534917778 gnorm: 0.000039626170 xtb: 6.4.1 (23d549d)
C         2.45780816260000   -1.70412862330000    0.32624664270000
C         2.21709595270000   -0.54147871940000   -0.26661966380000
C         0.98892330150000    0.22883926760000   -0.16196136270000
C         1.00554125860000    1.64938313360000   -0.13156726880000
C        -0.22435530470000    2.19608080120000    0.01628667070000
S        -1.45874575530000    1.00409238300000    0.10080373730000
C        -0.29135459790000   -0.27882157500000   -0.05849375580000
C        -0.71762253360000   -1.64831284320000   -0.15774495120000
C        -1.93563468680000   -2.08844367100000    0.14516541810000
H         3.40224667070000   -2.20800462890000    0.20888425250000
H         1.73682679160000   -2.18094610230000    0.96821089000000
H         2.99636803080000   -0.06697162930000   -0.85132837200000
H         1.91098592880000    2.22659750890000   -0.20015218070000
H        -0.49033863250000    3.23256262980000    0.08114533120000
H         0.03516927210000   -2.33375613590000   -0.52514218240000
H        -2.69703140550000   -1.42467763680000    0.52092049000000
H        -2.20718838780000   -3.12292618270000    0.03128159900000
