
Running Job 1 of 1 tidas/B053/conf-2/spe_input.inp
qchem tidas/B053/conf-2/spe_input.inp_134491.0 /home/a/aspuru/seifridm/acdc_laser/descriptor_computation/qchem134491/ 0
/gpfs/fs1/scinet/niagara/software/commercial/qc54/exe/qcprog.exe_s tidas/B053/conf-2/spe_input.inp_134491.0 /home/a/aspuru/seifridm/acdc_laser/descriptor_computation/qchem134491/
                  Welcome to Q-Chem
     A Quantum Leap Into The Future Of Chemistry


 Q-Chem 5.4, Q-Chem, Inc., Pleasanton, CA (2021)

 License issued to: SRG Alan Aspuru-Guzik, University of Toronto

 E. Epifanovsky,  A. T. B. Gilbert,  Xintian Feng,  Joonho Lee,  Yuezhi Mao,  
 N. Mardirossian,  P. Pokhilko,  A. White,  M. Wormit,  M. P. Coons,  
 A. L. Dempwolff,  Zhengting Gan,  D. Hait,  P. R. Horn,  L. D. Jacobson,  
 I. Kaliman,  J. Kussmann,  A. W. Lange,  Ka Un Lao,  D. S. Levine,  Jie Liu,  
 S. C. McKenzie,  A. F. Morrison,  K. Nanda,  F. Plasser,  D. R. Rehn,  
 M. L. Vidal,  Zhi-Qiang You,  Ying Zhu,  B. Alam,  B. Albrecht,  
 A. Aldossary,  E. Alguire,  J. H. Andersen,  D. Barton,  K. Begam,  A. Behn,  
 Y. A. Bernard,  E. J. Berquist,  H. Burton,  A. Carreras,  K. Carter-Fenk,  
 Romit Chakraborty,  A. D. Chien,  K. D. Closser,  V. Cofer-Shabica,  
 S. Dasgupta,  Jia Deng,  M. de Wergifosse,  M. Diedenhofen,  Hainam Do,  
 S. Ehlert,  Po-Tung Fang,  S. Fatehi,  Qingguo Feng,  T. Friedhoff,  
 J. Gayvert,  Qinghui Ge,  G. Gidofalvi,  M. Goldey,  J. Gomes,  
 C. Gonzalez-Espinoza,  S. Gulania,  A. Gunina,  M. W. D. Hanson-Heine,  
 P. H. P. Harbach,  A. W. Hauser,  M. F. Herbst,  M. Hernandez Vera,  
 M. Hodecker,  Z. C. Holden,  S. Houck,  Xunkun Huang,  Kerwin Hui,  
 B. C. Huynh,  M. Ivanov,  Hyunjun Ji,  Hanjie Jiang,  B. Kaduk,  S. Kaehler,  
 K. Khistyaev,  Jaehoon Kim,  P. Klunzinger,  Z. Koczor-Benda,  
 Joong Hoon Koh,  D. Kosenkov,  L. Koulias,  T. Kowalczyk,  C. M. Krauter,  
 K. Kue,  A. Kunitsa,  T. Kus,  A. Landau,  K. V. Lawler,  D. Lefrancois,  
 S. Lehtola,  Rain Li,  Yi-Pei Li,  Jiashu Liang,  M. Liebenthal,  
 Hung-Hsuan Lin,  You-Sheng Lin,  Fenglai Liu,  Kuan-Yu Liu,  
 M. Loipersberger,  A. Luenser,  A. Manjanath,  P. Manohar,  E. Mansoor,  
 S. F. Manzer,  Shan-Ping Mao,  A. V. Marenich,  T. Markovich,  S. Mason,  
 S. A. Maurer,  P. F. McLaughlin,  M. F. S. J. Menger,  J.-M. Mewes,  
 S. A. Mewes,  P. Morgante,  J. W. Mullinax,  K. J. Oosterbaan,  G. Paran,  
 Alexander C. Paul,  Suranjan K. Paul,  F. Pavosevic,  Zheng Pei,  S. Prager,  
 E. I. Proynov,  E. Ramos,  B. Rana,  A. E. Rask,  A. Rettig,  R. M. Richard,  
 F. Rob,  E. Rossomme,  T. Scheele,  M. Scheurer,  M. Schneider,  
 N. Sergueev,  S. M. Sharada,  W. Skomorowski,  D. W. Small,  C. J. Stein,  
 Yu-Chuan Su,  E. J. Sundstrom,  Zhen Tao,  J. Thirman,  T. Tsuchimochi,  
 N. M. Tubman,  S. P. Veccham,  O. Vydrov,  J. Wenzel,  J. Witte,  A. Yamada,  
 Kun Yao,  S. Yeganeh,  S. R. Yost,  A. Zech,  Igor Ying Zhang,  Xing Zhang,  
 Yu Zhang,  D. Zuev,  A. Aspuru-Guzik,  A. T. Bell,  N. A. Besley,  
 K. B. Bravaya,  B. R. Brooks,  D. Casanova,  Jeng-Da Chai,  S. Coriani,  
 C. J. Cramer,  A. E. DePrince, III,  R. A. DiStasio Jr.,  A. Dreuw,  
 B. D. Dunietz,  T. R. Furlani,  W. A. Goddard III,  S. Grimme,  
 S. Hammes-Schiffer,  T. Head-Gordon,  W. J. Hehre,  Chao-Ping Hsu,  
 T.-C. Jagau,  Yousung Jung,  A. Klamt,  Jing Kong,  D. S. Lambrecht,  
 WanZhen Liang,  N. J. Mayhall,  C. W. McCurdy,  J. B. Neaton,  T. Neudecker,  
 C. Ochsenfeld,  J. A. Parkhill,  R. Peverati,  V. A. Rassolov,  Yihan Shao,  
 L. V. Slipchenko,  R. P. Steele,  J. E. Subotnik,  A. J. W. Thom,  
 A. Tkatchenko,  D. G. Truhlar,  T. Van Voorhis,  T. A. Wesolowski,  
 K. B. Whaley,  H. L. Woodcock III,  P. M. Zimmerman,  S. Faraji,  
 P. M. W. Gill,  M. Head-Gordon,  J. M. Herbert,  A. I. Krylov

 Additional authors since Version 5.4.0: 
 Chandrima Chakravarty,  L. Cunha,  R. Kang,  Yongbin Kim,  S. Kotaru,  
 Shaozhi Li,  Xiangyuan Li,  F. Matz,  A. Molle,  V. Parravicini,  
 Haisheng Ren,  Hengyuan Shen,  Yingli Su,  Hung-Yi Tsai,  C. Utku,  
 Fang Wang,  Jeff Yang,  F. Zeller

 Contributors to earlier versions of Q-Chem not listed above: 
 R. D. Adamson,  B. Austin,  R. Baer,  J. Baker,  G. J. O. Beran,  
 K. Brandhorst,  S. T. Brown,  E. F. C. Byrd,  Arup K. Chakraborty,  
 G. K. L. Chan,  Chun-Min Chang,  Yunqing Chen,  C.-L. Cheng,  
 Siu Hung Chien,  D. M. Chipman,  D. L. Crittenden,  H. Dachsel,  
 R. J. Doerksen,  A. D. Dutoi,  R. G. Edgar,  J. Fosso-Tande,  
 L. Fusti-Molnar,  D. Ghosh,  A. Ghysels,  A. Golubeva-Zadorozhnaya,  
 J. Gonthier,  M. S. Gordon,  S. R. Gwaltney,  G. Hawkins,  J. E. Herr,  
 A. Heyden,  S. Hirata,  E. G. Hohenstein,  G. Kedziora,  F. J. Keil,  
 C. Kelley,  Jihan Kim,  R. A. King,  R. Z. Khaliullin,  P. P. Korambath,  
 W. Kurlancheek,  A. Laurent,  A. M. Lee,  M. S. Lee,  S. V. Levchenko,  
 Ching Yeh Lin,  D. Liotard,  E. Livshits,  R. C. Lochan,  I. Lotan,  
 L. A. Martinez-Martinez,  P. E. Maslen,  N. Nair,  D. P. O'Neill,  
 D. Neuhauser,  E. Neuscamman,  C. M. Oana,  R. Olivares-Amaya,  R. Olson,  
 T. M. Perrine,  B. Peters,  P. A. Pieniazek,  A. Prociuk,  Y. M. Rhee,  
 J. Ritchie,  M. A. Rohrdanz,  E. Rosta,  N. J. Russ,  H. F. Schaefer III,  
 M. W. Schmidt,  N. E. Schultz,  S. Sharma,  N. Shenvi,  C. D. Sherrill,  
 A. C. Simmonett,  A. Sodt,  T. Stein,  D. Stuck,  K. S. Thanthiriwatte,  
 V. Vanovschi,  L. Vogt,  Tao Wang,  A. Warshel,  M. A. Watson,  
 C. F. Williams,  Q. Wu,  X. Xu,  Jun Yang,  W. Zhang,  Yan Zhao

   Please cite Q-Chem as follows:
  "Software for the frontiers of quantum chemistry:
   An overview of developments in the Q-Chem 5 package"
   J. Chem. Phys. 155, 084801 (2021)
   https://doi.org/10.1063/5.0055522 (open access)

 Q-Chem 5.4.2 for Intel X86 EM64T Linux

 Parts of Q-Chem use Armadillo 9.900.5 (Nocturnal Misbehaviour).
 http://arma.sourceforge.net/

 Q-Chem begins on Fri Aug 12 13:11:43 2022  

 Host: 
0

     Scratch files written to /home/a/aspuru/seifridm/acdc_laser/descriptor_computation/qchem134491//
 Dec1321 |scratch|qcdevops|jenkins|workspace|build_RNUM 6959   
 Processing $rem in /gpfs/fs1/scinet/niagara/software/commercial/qc54/config/preferences:
 Processing $rem in /home/a/aspuru/seifridm/.qchemrc:

 Checking the input file for inconsistencies... 	...done.

--------------------------------------------------------------
User input:
--------------------------------------------------------------
$molecule
0 1
C            1.98295384590000        2.66831218680000       -0.36419853090000
C            0.71824458450000        2.67524912060000       -0.76436598310000
C           -0.29555790430000        1.67073294070000       -0.45251151800000
C           -1.61049328580000        2.09652276890000       -0.27397429870000
C           -2.61726726130000        1.21595474160000        0.06715739620000
C           -2.35767010770000       -0.14018152230000        0.21084130780000
C           -3.42082034380000       -1.13510482490000        0.55084881770000
C           -1.04996126660000       -0.55972429640000        0.00286168100000
F           -0.80016626580000       -1.88602691330000        0.06612305120000
C           -0.00323622410000        0.30320292350000       -0.31189176290000
C            1.33532229660000       -0.22461130830000       -0.57672057710000
C            1.94904948340000       -1.14817270570000        0.14384512380000
F            1.52872267100000       -1.68897344390000        1.27695998140000
F            3.15713016890000       -1.62547535160000       -0.15059670880000
H            2.65492605730000        3.46845630720000       -0.62399837570000
H            2.38810563360000        1.88944596190000        0.25818786630000
H            0.34939689410000        3.51849673640000       -1.33583917190000
H           -1.83750036620000        3.14616725470000       -0.38865080030000
H           -3.62340640140000        1.57900759950000        0.21379399600000
H           -4.36905905630000       -0.63855524970000        0.73577386720000
H           -3.13538088070000       -1.70306654310000        1.43510761450000
H           -3.54552607520000       -1.84559713940000       -0.26581993870000
H            1.86203997640000        0.16289820570000       -1.43601894480000
$end

$rem
BASIS = 6-31G*
GUI = 2
METHOD = B3LYP
PRINT_ORBITALS false
MOLDEN_FORMAT false
$end
--------------------------------------------------------------
 ----------------------------------------------------------------
             Standard Nuclear Orientation (Angstroms)
    I     Atom           X                Y                Z
 ----------------------------------------------------------------
    1      C       1.6498344807    -2.8647134688    -0.3561372599
    2      C       0.4108097765    -2.7882495091     0.1114551608
    3      C      -0.4522828360    -1.6097785488     0.0919927045
    4      C      -1.8205624334    -1.7994267469    -0.0925935306
    5      C      -2.6959346272    -0.7348273539    -0.1682002541
    6      C      -2.2430943879     0.5698152836    -0.0268332817
    7      C      -3.1572461806     1.7521806728    -0.0727080633
    8      C      -0.8819846791     0.7477712553     0.1855016195
    9      F      -0.4407947597     2.0067972534     0.3992378265
   10      C       0.0346853675    -0.2993354247     0.2367857134
   11      C       1.4440402046    -0.0340644890     0.5262876157
   12      C       2.1653690463     0.9352924181    -0.0111819486
   13      F       1.7953065034     1.7708607627    -0.9692887297
   14      F       3.4391740430     1.1630716290     0.3042704451
   15      H       2.2036617979    -3.7873809248    -0.3210189733
   16      H       2.1465708529    -2.0284599747    -0.8166570369
   17      H      -0.0611149567    -3.6800573539     0.5059961346
   18      H      -2.1967341001    -2.8064179110    -0.1969972363
   19      H      -3.7487072760    -0.9135971921    -0.3273754223
   20      H      -4.1736972965     1.4453835642    -0.3020943609
   21      H      -2.8180320000     2.4607272844    -0.8269396319
   22      H      -3.1505199335     2.2697269174     0.8861450789
   23      H       1.9335984428    -0.6744757474     1.2447547157
 ----------------------------------------------------------------
 Molecular Point Group                 C1    NOp =  1
 Largest Abelian Subgroup              C1    NOp =  1
 Nuclear Repulsion Energy =         878.38760197 hartrees
 There are       51 alpha and       51 beta electrons
 Requested basis set is 6-31G(d)
 There are 74 shells and 228 basis functions

 Total QAlloc Memory Limit   8000 MB
 Mega-Array Size       188 MB
 MEM_STATIC part       192 MB
 A cutoff of  1.0D-08 yielded   1858 shell pairs
 There are     19355 function pairs
 Smallest overlap matrix eigenvalue = 3.14E-04

 Scale SEOQF with 1.000000e-01/1.000000e-01/1.000000e+00

 Standard Electronic Orientation quadrupole field applied
 Nucleus-field energy     =     0.0000000165 hartrees
 Guess from superposition of atomic densities
 Warning:  Energy on first SCF cycle will be non-variational
 SAD guess density has 102.000000 electrons

 -----------------------------------------------------------------------
  General SCF calculation program by
  Eric Jon Sundstrom, Paul Horn, Yuezhi Mao, Dmitri Zuev, Alec White,
  David Stuck, Shaama M.S., Shane Yost, Joonho Lee, David Small,
  Daniel Levine, Susi Lehtola, Hugh Burton, Evgeny Epifanovsky,
  Bang C. Huynh
 -----------------------------------------------------------------------
 Exchange:     0.2000 Hartree-Fock + 0.0800 Slater + 0.7200 B88
 Correlation:  0.1900 VWN1RPA + 0.8100 LYP
 Using SG-1 standard quadrature grid
 A restricted SCF calculation will be
 performed using DIIS
 SCF converges when DIIS error is below 1.0e-05
 ---------------------------------------
  Cycle       Energy         DIIS error
 ---------------------------------------
    1    -727.1172313876      5.21e-02  
    2    -723.8357556220      5.88e-03  
    3    -723.6585065242      7.83e-03  
    4    -724.0443719860      1.54e-03  
    5    -724.0590091795      4.74e-04  
    6    -724.0600354032      2.52e-04  
    7    -724.0604642993      4.90e-05  
    8    -724.0604782933      1.77e-05  
    9    -724.0604805233      4.07e-06  Convergence criterion met
 ---------------------------------------
 SCF time:   CPU 57.80s  wall 59.00s 
 SCF   energy in the final basis set =     -724.0604805233
 Total energy in the final basis set =     -724.0604805233
 
 --------------------------------------------------------------
 
                    Orbital Energies (a.u.)
 --------------------------------------------------------------
 
 Alpha MOs
 -- Occupied --
-24.7332 -24.7292 -24.7066 -10.3510 -10.2679 -10.2102 -10.2033 -10.2018
-10.1983 -10.1958 -10.1932 -10.1897 -10.1860 -10.1842  -1.2782  -1.2201
 -1.2159  -0.8788  -0.8182  -0.7965  -0.7562  -0.7393  -0.6928  -0.6487
 -0.6105  -0.6082  -0.5796  -0.5627  -0.5424  -0.5156  -0.5101  -0.4907
 -0.4761  -0.4627  -0.4580  -0.4398  -0.4348  -0.4316  -0.4242  -0.4164
 -0.4074  -0.4027  -0.3917  -0.3759  -0.3629  -0.3604  -0.3422  -0.2924
 -0.2835  -0.2331  -0.2211
 -- Virtual --
 -0.0330  -0.0104   0.0399   0.0551   0.0991   0.1109   0.1157   0.1232
  0.1392   0.1491   0.1617   0.1652   0.1786   0.1928   0.2025   0.2077
  0.2198   0.2441   0.2982   0.3084   0.3327   0.3433   0.3674   0.3855
  0.4118   0.4233   0.4596   0.4953   0.5075   0.5087   0.5170   0.5291
  0.5353   0.5481   0.5558   0.5646   0.5697   0.5878   0.5897   0.6002
  0.6166   0.6240   0.6393   0.6429   0.6676   0.6868   0.6896   0.7080
  0.7165   0.7298   0.7681   0.7817   0.8058   0.8300   0.8436   0.8538
  0.8622   0.8778   0.8810   0.8847   0.9212   0.9273   0.9312   0.9532
  0.9656   0.9725   1.0024   1.0113   1.0347   1.0662   1.0828   1.0988
  1.1260   1.1525   1.1707   1.1785   1.2009   1.2181   1.2264   1.2409
  1.2706   1.2769   1.3097   1.3430   1.3559   1.3752   1.3975   1.4048
  1.4317   1.4385   1.4447   1.4721   1.4855   1.4920   1.5176   1.5308
  1.5736   1.6092   1.6657   1.6809   1.7283   1.7458   1.7607   1.7902
  1.7912   1.8103   1.8241   1.8400   1.8469   1.8522   1.8591   1.8824
  1.8859   1.9007   1.9273   1.9652   1.9821   1.9841   1.9986   2.0091
  2.0274   2.0343   2.0546   2.0827   2.1085   2.1241   2.1472   2.1904
  2.2094   2.2334   2.2495   2.2616   2.2724   2.2944   2.3105   2.3221
  2.3466   2.3701   2.3747   2.4039   2.4305   2.4756   2.5297   2.5501
  2.5784   2.5983   2.6348   2.6597   2.6812   2.7164   2.7401   2.7856
  2.8260   2.8667   2.8784   2.9365   3.0152   3.0636   3.1188   3.1372
  3.1851   3.3321   3.4721   4.0849   4.1044   4.1121   4.1415   4.1630
  4.2230   4.2541   4.3223   4.4294   4.4885   4.7518   4.7750   5.3063
  5.6662
 --------------------------------------------------------------
 
          Ground-State Mulliken Net Atomic Charges

     Atom                 Charge (a.u.)
  ----------------------------------------
      1 C                    -0.339261
      2 C                    -0.138200
      3 C                     0.115309
      4 C                    -0.190577
      5 C                    -0.177074
      6 C                     0.100826
      7 C                    -0.520516
      8 C                     0.268712
      9 F                    -0.289310
     10 C                     0.039334
     11 C                    -0.334780
     12 C                     0.570132
     13 F                    -0.234256
     14 F                    -0.250081
     15 H                     0.145455
     16 H                     0.159376
     17 H                     0.136127
     18 H                     0.129030
     19 H                     0.129396
     20 H                     0.155086
     21 H                     0.173264
     22 H                     0.172632
     23 H                     0.179376
  ----------------------------------------
  Sum of atomic charges =     0.000000

 -----------------------------------------------------------------
                    Cartesian Multipole Moments
 -----------------------------------------------------------------
    Charge (ESU x 10^10)
                 0.0000
    Dipole Moment (Debye)
         X      -1.4617      Y      -1.5905      Z       0.2076
       Tot       2.1701
    Quadrupole Moments (Debye-Ang)
        XX     -72.9555     XY      -2.9561     YY     -75.2154
        XZ       0.6194     YZ      -0.7148     ZZ     -79.5737
    Octopole Moments (Debye-Ang^2)
       XXX       7.3153    XXY       5.6201    XYY       7.5114
       YYY      20.0095    XXZ      -4.8126    XYZ       0.5442
       YYZ       1.7909    XZZ      15.4659    YZZ      17.7838
       ZZZ      -1.0518
    Hexadecapole Moments (Debye-Ang^3)
      XXXX   -1862.6369   XXXY      22.9283   XXYY    -524.9416
      XYYY      39.5449   YYYY   -1316.7188   XXXZ      -2.4677
      XXYZ       5.1079   XYYZ      -1.8345   YYYZ     -16.7191
      XXZZ    -346.6977   XYZZ      10.9291   YYZZ    -264.5085
      XZZZ      -7.2776   YZZZ      -7.7713   ZZZZ    -143.0865
 -----------------------------------------------------------------
 Total job time:  62.48s(wall), 58.31s(cpu) 
 Fri Aug 12 13:12:45 2022

        *************************************************************
        *                                                           *
        *  Thank you very much for using Q-Chem.  Have a nice day.  *
        *                                                           *
        *************************************************************


