49
 energy: -65.999628444338 gnorm: 0.000062633790 xtb: 6.4.1 (23d549d)
C        -6.28205069720000   -0.90824982260000    0.01338824880000
C        -5.12078611440000   -1.29035358680000    0.53309880660000
C        -3.79720677730000   -0.83125979170000    0.14124623790000
C        -3.57185371850000    0.11676720520000   -0.85642579630000
C        -2.29470625930000    0.51589234610000   -1.19133093380000
C        -1.17466049870000    0.00161642080000   -0.53493237180000
C        -1.40289675310000   -0.94462307860000    0.46807876700000
C        -2.67914468140000   -1.35833198290000    0.78993164460000
S        -0.04423050650000   -1.59236654170000    1.40780456470000
C         1.20534211450000   -1.51856810540000    0.15163165690000
C         2.23749707260000   -2.43310960610000    0.19687192360000
C         3.28398560010000   -2.39144269370000   -0.72599186550000
C         4.36451520500000   -3.35862919800000   -0.61099235700000
C         5.45807941050000   -3.42189854460000   -1.36241387040000
C         3.22423386610000   -1.41530111200000   -1.72010630190000
C         2.18003091160000   -0.51587448460000   -1.77907562040000
C         1.15551451620000   -0.52518261350000   -0.83024600580000
N         0.11582218120000    0.39794932660000   -0.87292726820000
C         0.34652259640000    1.73316360230000   -1.38125941090000
C        -0.13694841920000    2.79311038800000   -0.38509976190000
C         0.60121181030000    2.67804628240000    0.94716898370000
C         0.07756526810000    3.64146899070000    2.01186549370000
C         0.25444922260000    5.12510221760000    1.68355277780000
C         1.71399574400000    5.53929363320000    1.53604810650000
H        -7.21369358190000   -1.31105501460000    0.37167222470000
H        -6.35701569470000   -0.18785327000000   -0.78293312720000
H        -5.12111571010000   -2.02197876810000    1.33204336730000
H        -4.40480650390000    0.54985067590000   -1.38737919370000
H        -2.16539081200000    1.23859737900000   -1.98130798950000
H        -2.80299583530000   -2.08719019360000    1.57744086900000
H         2.23680568180000   -3.17439363290000    0.98249930220000
H         4.23293747600000   -4.08328436390000    0.18339152440000
H         5.65669363610000   -2.73113209740000   -2.16373534250000
H         6.20568660960000   -4.17861379860000   -1.19810460630000
H         3.99655023000000   -1.36137658890000   -2.47092399810000
H         2.15481531390000    0.20241672310000   -2.58431521180000
H        -0.13048396720000    1.88225083140000   -2.35833888380000
H         1.42283076070000    1.85661557740000   -1.50896202370000
H        -1.20912455810000    2.68333247230000   -0.21297033430000
H         0.03704274290000    3.77357242210000   -0.83037777610000
H         1.66856061930000    2.84324619530000    0.78882902820000
H         0.48298165170000    1.66093729280000    1.32776899320000
H         0.59435763380000    3.42893004130000    2.95081945820000
H        -0.98562871140000    3.44303986760000    2.17000112730000
H        -0.19555503360000    5.70551451640000    2.49266895100000
H        -0.28880193750000    5.37056619030000    0.76930926300000
H         2.28105500210000    5.25371041320000    2.41947393000000
H         1.78956600420000    6.61761188480000    1.41436615190000
H         2.17009249590000    5.07030951600000    0.66798057320000
