23
 energy: -42.290336779253 gnorm: 0.000186573100 xtb: 6.4.1 (23d549d)
C         3.07001861450000    2.91355316680000   -0.10694730400000
C         1.79785279730000    2.61108665830000    0.11954774910000
C         1.19942340800000    1.28115682860000    0.05989968470000
C         1.95748422720000    0.11433244390000   -0.00243990570000
C         1.36595882870000   -1.14418638350000   -0.06430552350000
C         2.14072487700000   -2.37983958210000   -0.12423040830000
C         3.44239240260000   -2.50574336450000    0.10186595180000
C        -0.02770010500000   -1.22997785190000   -0.07380939360000
C        -0.78937975190000   -0.07649124370000   -0.00212387910000
C        -2.28949232600000   -0.14163375860000    0.00199105720000
F        -2.77334633050000   -1.38788167710000   -0.08808957890000
F        -2.81760735930000    0.38867820620000    1.12253745950000
F        -2.83112871650000    0.54895114610000   -1.02018260110000
C        -0.19109845090000    1.17236818280000    0.06983515530000
H         3.42107661620000    3.92908895970000   -0.04625669540000
H         3.80862186280000    2.17591401370000   -0.37072279140000
H         1.10181763210000    3.40561826380000    0.35718410110000
H         3.03247819180000    0.18809352270000   -0.00273306920000
H         1.55990694090000   -3.26219387000000   -0.36176725900000
H         4.07338390880000   -1.67425934260000    0.36575829670000
H         3.92890117340000   -3.46374352040000    0.04060630680000
H        -0.51079657790000   -2.19390666270000   -0.12688287410000
H        -0.80685903840000    2.05801562230000    0.12280008870000
