
Running Job 1 of 1 fragments/B009/conf-1/spe_input.inp
qchem fragments/B009/conf-1/spe_input.inp_144147.0 /gpfs/fs0/scratch/a/aspuru/rhickman/descriptor_computation/qchem144147/ 0
/scinet/niagara/software/commercial/qc52/exe/qcprog.exe_s fragments/B009/conf-1/spe_input.inp_144147.0 /gpfs/fs0/scratch/a/aspuru/rhickman/descriptor_computation/qchem144147/
                  Welcome to Q-Chem
     A Quantum Leap Into The Future Of Chemistry


 Q-Chem 5.2, Q-Chem, Inc., Pleasanton, CA (2019)

 License issued to: SRG Alan Aspuru-Guzik, University of Toronto

 Yihan Shao,  Zhengting Gan,  E. Epifanovsky,  A. T. B. Gilbert,  M. Wormit,  
 J. Kussmann,  A. W. Lange,  A. Behn,  Jia Deng,  Xintian Feng,  D. Ghosh,  
 M. Goldey,  P. R. Horn,  L. D. Jacobson,  I. Kaliman,  T. Kus,  A. Landau,  
 Jie Liu,  E. I. Proynov,  R. M. Richard,  R. P. Steele,  E. J. Sundstrom,  
 H. L. Woodcock III,  P. M. Zimmerman,  D. Zuev,  B. Albrecht,  E. Alguire,  
 S. A. Baeppler,  D. Barton,  Z. Benda,  Y. A. Bernard,  E. J. Berquist,  
 K. B. Bravaya,  H. Burton,  D. Casanova,  Chun-Min Chang,  Yunqing Chen,  
 A. Chien,  K. D. Closser,  M. P. Coons,  S. Coriani,  S. Dasgupta,  
 A. L. Dempwolff,  M. Diedenhofen,  Hainam Do,  R. G. Edgar,  Po-Tung Fang,  
 S. Faraji,  S. Fatehi,  Qingguo Feng,  K. D. Fenk,  J. Fosso-Tande,  
 J. Gayvert,  Qinghui Ge,  A. Ghysels,  G. Gidofalvi,  J. Gomes,  
 J. Gonthier,  A. Gunina,  D. Hait,  M. W. D. Hanson-Heine,  
 P. H. P. Harbach,  A. W. Hauser,  M. F. Herbst,  J. E. Herr,  
 E. G. Hohenstein,  Z. C. Holden,  Kerwin Hui,  B. C. Huynh,  T.-C. Jagau,  
 Hyunjun Ji,  B. Kaduk,  K. Khistyaev,  Jaehoon Kim,  P. Klunzinger,  K. Koh,  
 D. Kosenkov,  L. Koulias,  T. Kowalczyk,  C. M. Krauter,  A. Kunitsa,  
 Ka Un Lao,  A. Laurent,  K. V. Lawler,  Joonho Lee,  D. Lefrancois,  
 S. Lehtola,  D. S. Levine,  Yi-Pei Li,  You-Sheng Lin,  Fenglai Liu,  
 E. Livshits,  A. Luenser,  P. Manohar,  E. Mansoor,  S. F. Manzer,  
 Shan-Ping Mao,  Yuezhi Mao,  N. Mardirossian,  A. V. Marenich,  
 T. Markovich,  L. A. Martinez-Martinez,  S. A. Maurer,  N. J. Mayhall,  
 S. C. McKenzie,  J.-M. Mewes,  P. Morgante,  A. F. Morrison,  
 J. W. Mullinax,  K. Nanda,  T. S. Nguyen-Beck,  R. Olivares-Amaya,  
 J. A. Parkhill,  Zheng Pei,  T. M. Perrine,  F. Plasser,  P. Pokhilko,  
 S. Prager,  A. Prociuk,  E. Ramos,  D. R. Rehn,  F. Rob,  M. Scheurer,  
 M. Schneider,  N. Sergueev,  S. M. Sharada,  S. Sharma,  D. W. Small,  
 T. Stauch,  T. Stein,  Yu-Chuan Su,  A. J. W. Thom,  A. Tkatchenko,  
 T. Tsuchimochi,  N. M. Tubman,  L. Vogt,  M. L. Vidal,  O. Vydrov,  
 M. A. Watson,  J. Wenzel,  M. de Wergifosse,  T. A. Wesolowski,  A. White,  
 J. Witte,  A. Yamada,  Jun Yang,  K. Yao,  S. Yeganeh,  S. R. Yost,  
 Zhi-Qiang You,  A. Zech,  Igor Ying Zhang,  Xing Zhang,  Yan Zhao,  
 Ying Zhu,  B. R. Brooks,  G. K. L. Chan,  C. J. Cramer,  M. S. Gordon,  
 W. J. Hehre,  A. Klamt,  M. W. Schmidt,  C. D. Sherrill,  D. G. Truhlar,  
 A. Aspuru-Guzik,  R. Baer,  A. T. Bell,  N. A. Besley,  Jeng-Da Chai,  
 A. E. DePrince, III,  R. A. DiStasio Jr.,  A. Dreuw,  B. D. Dunietz,  
 T. R. Furlani,  Chao-Ping Hsu,  Yousung Jung,  Jing Kong,  D. S. Lambrecht,  
 WanZhen Liang,  C. Ochsenfeld,  V. A. Rassolov,  L. V. Slipchenko,  
 J. E. Subotnik,  T. Van Voorhis,  J. M. Herbert,  A. I. Krylov,  
 P. M. W. Gill,  M. Head-Gordon

 Contributors to earlier versions of Q-Chem not listed above: 
 R. D. Adamson,  B. Austin,  J. Baker,  G. J. O. Beran,  K. Brandhorst,  
 S. T. Brown,  E. F. C. Byrd,  A. K. Chakraborty,  C.-L. Cheng,  
 Siu Hung Chien,  D. M. Chipman,  D. L. Crittenden,  H. Dachsel,  
 R. J. Doerksen,  A. D. Dutoi,  L. Fusti-Molnar,  W. A. Goddard III,  
 A. Golubeva-Zadorozhnaya,  S. R. Gwaltney,  G. Hawkins,  A. Heyden,  
 S. Hirata,  G. Kedziora,  F. J. Keil,  C. Kelley,  Jihan Kim,  R. A. King,  
 R. Z. Khaliullin,  P. P. Korambath,  W. Kurlancheek,  A. M. Lee,  M. S. Lee,  
 S. V. Levchenko,  Ching Yeh Lin,  D. Liotard,  R. C. Lochan,  I. Lotan,  
 P. E. Maslen,  N. Nair,  D. P. O'Neill,  D. Neuhauser,  E. Neuscamman,  
 C. M. Oana,  R. Olson,  B. Peters,  R. Peverati,  P. A. Pieniazek,  
 Y. M. Rhee,  J. Ritchie,  M. A. Rohrdanz,  E. Rosta,  N. J. Russ,  
 H. F. Schaefer III,  N. E. Schultz,  N. Shenvi,  A. C. Simmonett,  A. Sodt,  
 D. Stuck,  K. S. Thanthiriwatte,  V. Vanovschi,  Tao Wang,  A. Warshel,  
 C. F. Williams,  Q. Wu,  X. Xu,  W. Zhang

 Please cite Q-Chem as follows:
 Y. Shao et al., Mol. Phys. 113, 184-215 (2015)
 DOI: 10.1080/00268976.2014.952696

 Q-Chem 5.2.1 for Intel X86 EM64T Linux

 Parts of Q-Chem use Armadillo 8.300.2 (Tropical Shenanigans).
 http://arma.sourceforge.net/

 Q-Chem begins on Mon Feb  7 17:20:30 2022  

Host: 
0

     Scratch files written to /gpfs/fs0/scratch/a/aspuru/rhickman/descriptor_computation/qchem144147//
 Jul1719 |scratch|qcdevops|jenkins|workspace|build_RNUM -1
Processing $rem in /scinet/niagara/software/commercial/qc52/config/preferences:
	 MEM_TOTAL  4000 
NAlpha2: 86
NElect   86
Mult     1

Checking the input file for inconsistencies... 	...done.

--------------------------------------------------------------
User input:
--------------------------------------------------------------
$molecule
0 1
C         3.77450572340000    1.98466144580000   -0.04424242200000
C         2.47081868430000    1.74606402510000    0.02831269090000
C         1.82100039370000    0.43964764890000    0.01821595240000
C         2.53120043620000   -0.76211154050000    0.01572896880000
C         1.86125330060000   -1.97067857120000    0.00526073740000
C         0.47984309830000   -2.00702149530000   -0.00299592280000
C        -0.25770511410000   -0.82086154610000    0.00114324440000
C        -1.70959801710000   -0.91980849300000   -0.00636242920000
C        -2.60571113370000    0.05536614330000   -0.00604615530000
F        -2.39346415250000    1.36624772080000    0.00151742960000
F        -3.91999948920000   -0.16555499120000   -0.01382006970000
C         0.42815580780000    0.39124377580000    0.01332147340000
H         4.15913843770000    2.98994702540000   -0.03155568600000
H         4.50998549780000    1.20238689890000   -0.12192585650000
H         1.78826997300000    2.58430034430000    0.09672573500000
H         3.60954145590000   -0.75336313070000    0.02607816980000
H         2.42073377180000   -2.89466071830000    0.00413574940000
H        -0.03515726890000   -2.95632002360000   -0.01123427820000
H        -2.12253305880000   -1.91852606790000   -0.01361360490000
H        -0.11843192650000    1.32083733740000    0.01711169180000
$end

$rem
BASIS = 6-31G*
GUI = 2
METHOD = B3LYP
PRINT_ORBITALS false
MOLDEN_FORMAT false
--------------------------------------------------------------
 ----------------------------------------------------------------
             Standard Nuclear Orientation (Angstroms)
    I     Atom           X                Y                Z
 ----------------------------------------------------------------
    1      C       3.8566951287     1.5720793892    -0.0438956372
    2      C       2.5345138028     1.4808815988     0.0289903979
    3      C       1.7425071369     0.2554450157     0.0180302541
    4      C       2.3136875362    -1.0182715106     0.0142096844
    5      C       1.5126340410    -2.1442200031     0.0029710864
    6      C       0.1358381229    -2.0256596714    -0.0047474110
    7      C      -0.4642645187    -0.7643838029     0.0007231097
    8      C      -1.9181090985    -0.7001430407    -0.0062695530
    9      C      -2.6994035043     0.3692311215    -0.0047392535
   10      F      -2.3417176641     1.6480990523     0.0038720397
   11      F      -4.0301655142     0.2968582627    -0.0121625295
   12      C       0.3529993958     0.3632974213     0.0136682066
   13      H       4.3514687530     2.5279674109    -0.0304969278
   14      H       4.4999398052     0.7124475370    -0.1225597707
   15      H       1.9501301553     2.3902054012     0.0984107821
   16      H       3.3862309656    -1.1303221125     0.0241217968
   17      H       1.9651439044    -3.1250323436     0.0008152187
   18      H      -0.4822135316    -2.9113203334    -0.0135954987
   19      H      -2.4402700147    -1.6463404644    -0.0142153460
   20      H      -0.0860696889     1.3482399613     0.0184888466
 ----------------------------------------------------------------
 Molecular Point Group                 C1    NOp =  1
 Largest Abelian Subgroup              C1    NOp =  1
 Nuclear Repulsion Energy =         632.47810954 hartrees
 There are       43 alpha and       43 beta electrons
 Requested basis set is 6-31G(d)
 There are 64 shells and 196 basis functions

 Total QAlloc Memory Limit   4000 MB
 Mega-Array Size       188 MB
 MEM_STATIC part       192 MB
 A cutoff of  1.0D-08 yielded   1436 shell pairs
 There are     14256 function pairs
 Smallest overlap matrix eigenvalue = 3.83E-04

 Scale SEOQF with 1.000000e-01/1.000000e-01/1.000000e+00

 Standard Electronic Orientation quadrupole field applied
 Nucleus-field energy     =     0.0000000297 hartrees
 Guess from superposition of atomic densities
 Warning:  Energy on first SCF cycle will be non-variational
 SAD guess density has 86.000000 electrons

 -----------------------------------------------------------------------
  General SCF calculation program by
  Eric Jon Sundstrom, Paul Horn, Yuezhi Mao, Dmitri Zuev, Alec White,
  David Stuck, Shaama M.S., Shane Yost, Joonho Lee, David Small,
  Daniel Levine, Susi Lehtola, Hugh Burton, Evgeny Epifanovsky,
  Bang C. Huynh
 -----------------------------------------------------------------------
 Exchange:     0.2000 Hartree-Fock + 0.0800 Slater + 0.7200 B88
 Correlation:  0.1900 VWN1RPA + 0.8100 LYP
 Using SG-1 standard quadrature grid
 A restricted SCF calculation will be
 performed using DIIS
 SCF converges when DIIS error is below 1.0e-05
 ---------------------------------------
  Cycle       Energy         DIIS error
 ---------------------------------------
    1    -588.1968894340      5.68e-02  
    2    -585.3048163299      6.44e-03  
    3    -585.1230765630      8.85e-03  
    4    -585.5020512598      1.62e-03  
    5    -585.5147890100      4.65e-04  
    6    -585.5155597289      2.49e-04  
    7    -585.5158758666      5.97e-05  
    8    -585.5158914621      2.20e-05  
    9    -585.5158937975      6.04e-06  Convergence criterion met
 ---------------------------------------
 SCF time:   CPU 22.76s  wall 22.00s 
 SCF   energy in the final basis set =     -585.5158937975
 Total energy in the final basis set =     -585.5158937975
 
 --------------------------------------------------------------
 
                    Orbital Energies (a.u.)
 --------------------------------------------------------------
 
 Alpha MOs
 -- Occupied --
-24.7451 -24.7342 -10.3572 -10.2066 -10.2034 -10.1968 -10.1908 -10.1908
-10.1901 -10.1876 -10.1874 -10.1809  -1.2858  -1.2247  -0.8713  -0.8150
 -0.7862  -0.7419  -0.7282  -0.6470  -0.6258  -0.6123  -0.5785  -0.5575
 -0.5223  -0.5193  -0.5070  -0.4809  -0.4515  -0.4413  -0.4407  -0.4342
 -0.4326  -0.4127  -0.4029  -0.3850  -0.3720  -0.3519  -0.3398  -0.3190
 -0.2858  -0.2341  -0.2183
 -- Virtual --
 -0.0364  -0.0200   0.0420   0.0843   0.0887   0.1135   0.1141   0.1354
  0.1503   0.1675   0.1808   0.1866   0.1909   0.2173   0.2299   0.2787
  0.3003   0.3100   0.3235   0.3649   0.3814   0.4124   0.4355   0.4745
  0.4954   0.5221   0.5297   0.5401   0.5497   0.5511   0.5560   0.5614
  0.5772   0.5923   0.5942   0.5975   0.6034   0.6182   0.6279   0.6390
  0.6607   0.6673   0.6969   0.7044   0.7627   0.7784   0.7868   0.8233
  0.8235   0.8351   0.8559   0.8804   0.8830   0.8981   0.9351   0.9569
  0.9590   0.9721   1.0113   1.0162   1.0400   1.0751   1.1232   1.1328
  1.1441   1.1595   1.1756   1.2033   1.2153   1.2262   1.2547   1.2593
  1.2925   1.3139   1.3434   1.3867   1.4035   1.4439   1.4469   1.4526
  1.4600   1.4802   1.4974   1.5093   1.5191   1.5325   1.5900   1.6434
  1.6774   1.7141   1.7783   1.7817   1.8036   1.8189   1.8234   1.8363
  1.8723   1.8957   1.9031   1.9505   1.9513   1.9644   1.9835   1.9953
  2.0121   2.0262   2.0281   2.0588   2.1131   2.1467   2.1611   2.1839
  2.1875   2.2158   2.2367   2.2455   2.2957   2.3303   2.3547   2.3580
  2.4076   2.5043   2.5093   2.5322   2.5775   2.6294   2.6318   2.6639
  2.6831   2.7000   2.7038   2.8057   2.8481   2.8630   2.9345   2.9696
  3.0477   3.1233   3.1833   3.3194   3.4755   4.0779   4.0902   4.1100
  4.1327   4.1506   4.2441   4.2597   4.3883   4.4955   4.7176   4.8176
  5.2908
 --------------------------------------------------------------
 
          Ground-State Mulliken Net Atomic Charges

     Atom                 Charge (a.u.)
  ----------------------------------------
      1 C                    -0.354344
      2 C                    -0.109213
      3 C                     0.180601
      4 C                    -0.182270
      5 C                    -0.130536
      6 C                    -0.191551
      7 C                     0.200193
      8 C                    -0.300610
      9 C                     0.545999
     10 F                    -0.234204
     11 F                    -0.249016
     12 C                    -0.276252
     13 H                     0.145445
     14 H                     0.143337
     15 H                     0.129225
     16 H                     0.126924
     17 H                     0.131083
     18 H                     0.127855
     19 H                     0.159639
     20 H                     0.137696
  ----------------------------------------
  Sum of atomic charges =     0.000000

 -----------------------------------------------------------------
                    Cartesian Multipole Moments
 -----------------------------------------------------------------
    Charge (ESU x 10^10)
                -0.0000
    Dipole Moment (Debye)
         X       0.7076      Y      -0.8744      Z      -0.0001
       Tot       1.1249
    Quadrupole Moments (Debye-Ang)
        XX     -65.4388     XY       1.6953     YY     -61.3972
        XZ      -0.1135     YZ       0.1524     ZZ     -70.8598
    Octopole Moments (Debye-Ang^2)
       XXX     -13.2975    XXY      -2.2957    XYY     -10.6229
       YYY       7.4752    XXZ      -0.8932    XYZ       0.0999
       YYZ       0.2404    XZZ     -24.6415    YZZ       7.1210
       ZZZ      -0.0589
    Hexadecapole Moments (Debye-Ang^3)
      XXXX   -2263.5762   XXXY     -22.0046   XXYY    -479.3238
      XYYY     -24.4587   YYYY    -722.0074   XXXZ      -4.8399
      XXYZ      -0.0888   XYYZ       0.8825   YYYZ       1.2476
      XXZZ    -414.3822   XYZZ     -20.6038   YYZZ    -153.0746
      XZZZ       0.4146   YZZZ       0.1927   ZZZZ     -68.5785
 -----------------------------------------------------------------
Archival summary:
1\1\nia1977.scinet.local\SP\ProcedureUnspecified\6-31G*\2108\rhickman\MonFeb717:20:532022MonFeb717:20:532022\0\\#,ProcedureUnspecified,6-31G*,\\0,1\F\C,1,1.32797\C,2,1.32438,1,128.222\H,3,1.08074,2,114.955,1,-179.987,0\F,2,1.33275,1,108.74,3,-179.997,0\C,3,1.45528,2,128.681,1,-0.0151051,0\C,6,1.39275,3,123.403,2,0.151143,0\H,7,1.07839,6,120.043,3,-0.0335229,0\C,7,1.39369,6,121.494,3,-179.905,0\C,9,1.39593,7,118.591,6,-0.238355,0\H,10,1.07843,9,120.114,7,-179.59,0\C,10,1.38187,9,120.417,7,0.158594,0\H,12,1.08017,10,119.803,9,-179.957,0\C,12,1.38191,10,120.509,9,0.00512776,0\H,14,1.08003,12,119.989,10,179.995,0\C,9,1.45914,7,118.437,6,179.878,0\H,16,1.08314,9,114.374,7,3.81038,0\C,16,1.32733,9,126.725,7,-175.779,0\H,18,1.07643,16,121.211,9,179.856,0\H,18,1.07653,16,122.98,9,0.0652886,0\\\@

 Total job time:  22.99s(wall), 22.91s(cpu) 
 Mon Feb  7 17:20:53 2022

        *************************************************************
        *                                                           *
        *  Thank you very much for using Q-Chem.  Have a nice day.  *
        *                                                           *
        *************************************************************


