20
 energy: -43.340425666053 gnorm: 0.000045382508 xtb: 6.5.0 (unknown)
C            1.95502940880000        2.14400989720000       -0.98371818620000
C            1.09768110630000        2.14087266560000        0.02528081260000
C           -0.10182894380000        1.29959830950000        0.09698333850000
C           -1.30413320190000        1.90566166610000        0.45715866390000
C           -2.49944140130000        1.21489683260000        0.44553143830000
C           -2.50298538290000       -0.11650543180000        0.06913037660000
F           -3.65770295320000       -0.80060316380000        0.03807053400000
C           -1.31372167880000       -0.74662559210000       -0.26354379150000
F           -1.32255993190000       -2.04973132470000       -0.59709840940000
C           -0.09774531800000       -0.06300750830000       -0.23746819840000
C            1.10929086680000       -0.83970869490000       -0.53113151520000
C            2.22811859530000       -0.79782957200000        0.17093921890000
F            2.47314953670000       -0.03312056610000        1.22558780800000
F            3.29547206690000       -1.54089040320000       -0.09262432600000
H            2.79525931700000        2.81569191140000       -1.00546265780000
H            1.84497293570000        1.48555155660000       -1.82956087960000
H            1.21468527990000        2.84342468400000        0.83948509890000
H           -1.29876313270000        2.94947280350000        0.73108253280000
H           -3.42894850080000        1.68869586360000        0.71648762930000
H            1.05059369590000       -1.57192413710000       -1.32279757500000
