47
 energy: -92.145991921679 gnorm: 0.000159223145 xtb: 6.4.1 (23d549d)
C         4.29821518340000   -1.77792527230000   -1.87059486200000
O         3.36707353590000   -2.48625887720000   -1.06495681760000
C         2.09881852940000   -2.06342073120000   -1.13218417800000
C         1.20342782820000   -2.87386177750000   -0.26380169840000
C         0.20141744940000   -2.26106494850000    0.50358429740000
N         0.11895168390000   -0.86747910900000    0.60499514550000
C         1.28420603280000   -0.11316532410000    0.71477099270000
C         1.37806693170000    1.14165349250000    0.11190185820000
C         2.55439140210000    1.86062639750000    0.21383294180000
C         2.68668045290000    3.20318769310000   -0.44528760480000
F         1.55042723310000    3.65082464670000   -0.99232914550000
F         3.08639634690000    4.15394197710000    0.42337670710000
F         3.60842806260000    3.19675607030000   -1.42732038900000
C         3.65423860180000    1.35751519730000    0.90007088220000
C         3.55503543660000    0.11389319690000    1.49918147330000
C         2.38425327910000   -0.61420542560000    1.41500888720000
C        -1.13320038790000   -0.24674352670000    0.55486892490000
C        -1.39527886180000    0.89050557360000    1.31972135000000
C        -2.63433065500000    1.48959115950000    1.27018260650000
C        -3.65784028320000    0.97566792630000    0.46862292230000
C        -4.93999099370000    1.65635924850000    0.47216809270000
C        -6.05622341400000    1.31718305700000   -0.15709379990000
F        -6.26758836000000    0.26619654970000   -0.94149114590000
F        -7.18168444210000    2.02533469070000   -0.07415836330000
C        -3.38762674990000   -0.16455460140000   -0.29275779080000
C        -2.14722704130000   -0.76324660070000   -0.25187652750000
C        -0.69503828070000   -3.06381887340000    1.20853907330000
C        -0.59149880630000   -4.43989814260000    1.16286081500000
C         0.42076012460000   -5.04299739390000    0.43139946780000
C         1.31376082000000   -4.25966681090000   -0.27546068470000
O         1.73601027350000   -1.15631054430000   -1.83843130130000
H         5.25691416710000   -2.27033940380000   -1.73157232930000
H         4.35202075740000   -0.73415110580000   -1.55296775340000
H         3.99527581270000   -1.80989746690000   -2.91888545770000
H         0.54632167470000    1.53218550580000   -0.45241418700000
H         4.56423522930000    1.93354516870000    0.95925330650000
H         4.39669163990000   -0.28998006970000    2.04025663220000
H         2.31625863990000   -1.58169889820000    1.89025479080000
H        -0.62336818260000    1.29660828800000    1.95642608010000
H        -2.82058634500000    2.36777444690000    1.87036922390000
H        -5.00571891040000    2.55733814520000    1.06505326800000
H        -4.14513554740000   -0.58360437990000   -0.93392688260000
H        -1.94838100070000   -1.63342108010000   -0.85875489690000
H        -1.46798641950000   -2.59321867650000    1.79770480320000
H        -1.29495147090000   -5.04532156360000    1.71415357110000
H         0.50890509120000   -6.11790848100000    0.40900136670000
H         2.09589794560000   -4.71439811420000   -0.86347213640000
