
Running Job 1 of 1 fragments/A005/conf-1/spe_input.inp
qchem fragments/A005/conf-1/spe_input.inp_362391.0 /gpfs/fs0/scratch/a/aspuru/rhickman/descriptor_computation/qchem362391/ 0
/scinet/niagara/software/commercial/qc52/exe/qcprog.exe_s fragments/A005/conf-1/spe_input.inp_362391.0 /gpfs/fs0/scratch/a/aspuru/rhickman/descriptor_computation/qchem362391/
                  Welcome to Q-Chem
     A Quantum Leap Into The Future Of Chemistry


 Q-Chem 5.2, Q-Chem, Inc., Pleasanton, CA (2019)

 License issued to: SRG Alan Aspuru-Guzik, University of Toronto

 Yihan Shao,  Zhengting Gan,  E. Epifanovsky,  A. T. B. Gilbert,  M. Wormit,  
 J. Kussmann,  A. W. Lange,  A. Behn,  Jia Deng,  Xintian Feng,  D. Ghosh,  
 M. Goldey,  P. R. Horn,  L. D. Jacobson,  I. Kaliman,  T. Kus,  A. Landau,  
 Jie Liu,  E. I. Proynov,  R. M. Richard,  R. P. Steele,  E. J. Sundstrom,  
 H. L. Woodcock III,  P. M. Zimmerman,  D. Zuev,  B. Albrecht,  E. Alguire,  
 S. A. Baeppler,  D. Barton,  Z. Benda,  Y. A. Bernard,  E. J. Berquist,  
 K. B. Bravaya,  H. Burton,  D. Casanova,  Chun-Min Chang,  Yunqing Chen,  
 A. Chien,  K. D. Closser,  M. P. Coons,  S. Coriani,  S. Dasgupta,  
 A. L. Dempwolff,  M. Diedenhofen,  Hainam Do,  R. G. Edgar,  Po-Tung Fang,  
 S. Faraji,  S. Fatehi,  Qingguo Feng,  K. D. Fenk,  J. Fosso-Tande,  
 J. Gayvert,  Qinghui Ge,  A. Ghysels,  G. Gidofalvi,  J. Gomes,  
 J. Gonthier,  A. Gunina,  D. Hait,  M. W. D. Hanson-Heine,  
 P. H. P. Harbach,  A. W. Hauser,  M. F. Herbst,  J. E. Herr,  
 E. G. Hohenstein,  Z. C. Holden,  Kerwin Hui,  B. C. Huynh,  T.-C. Jagau,  
 Hyunjun Ji,  B. Kaduk,  K. Khistyaev,  Jaehoon Kim,  P. Klunzinger,  K. Koh,  
 D. Kosenkov,  L. Koulias,  T. Kowalczyk,  C. M. Krauter,  A. Kunitsa,  
 Ka Un Lao,  A. Laurent,  K. V. Lawler,  Joonho Lee,  D. Lefrancois,  
 S. Lehtola,  D. S. Levine,  Yi-Pei Li,  You-Sheng Lin,  Fenglai Liu,  
 E. Livshits,  A. Luenser,  P. Manohar,  E. Mansoor,  S. F. Manzer,  
 Shan-Ping Mao,  Yuezhi Mao,  N. Mardirossian,  A. V. Marenich,  
 T. Markovich,  L. A. Martinez-Martinez,  S. A. Maurer,  N. J. Mayhall,  
 S. C. McKenzie,  J.-M. Mewes,  P. Morgante,  A. F. Morrison,  
 J. W. Mullinax,  K. Nanda,  T. S. Nguyen-Beck,  R. Olivares-Amaya,  
 J. A. Parkhill,  Zheng Pei,  T. M. Perrine,  F. Plasser,  P. Pokhilko,  
 S. Prager,  A. Prociuk,  E. Ramos,  D. R. Rehn,  F. Rob,  M. Scheurer,  
 M. Schneider,  N. Sergueev,  S. M. Sharada,  S. Sharma,  D. W. Small,  
 T. Stauch,  T. Stein,  Yu-Chuan Su,  A. J. W. Thom,  A. Tkatchenko,  
 T. Tsuchimochi,  N. M. Tubman,  L. Vogt,  M. L. Vidal,  O. Vydrov,  
 M. A. Watson,  J. Wenzel,  M. de Wergifosse,  T. A. Wesolowski,  A. White,  
 J. Witte,  A. Yamada,  Jun Yang,  K. Yao,  S. Yeganeh,  S. R. Yost,  
 Zhi-Qiang You,  A. Zech,  Igor Ying Zhang,  Xing Zhang,  Yan Zhao,  
 Ying Zhu,  B. R. Brooks,  G. K. L. Chan,  C. J. Cramer,  M. S. Gordon,  
 W. J. Hehre,  A. Klamt,  M. W. Schmidt,  C. D. Sherrill,  D. G. Truhlar,  
 A. Aspuru-Guzik,  R. Baer,  A. T. Bell,  N. A. Besley,  Jeng-Da Chai,  
 A. E. DePrince, III,  R. A. DiStasio Jr.,  A. Dreuw,  B. D. Dunietz,  
 T. R. Furlani,  Chao-Ping Hsu,  Yousung Jung,  Jing Kong,  D. S. Lambrecht,  
 WanZhen Liang,  C. Ochsenfeld,  V. A. Rassolov,  L. V. Slipchenko,  
 J. E. Subotnik,  T. Van Voorhis,  J. M. Herbert,  A. I. Krylov,  
 P. M. W. Gill,  M. Head-Gordon

 Contributors to earlier versions of Q-Chem not listed above: 
 R. D. Adamson,  B. Austin,  J. Baker,  G. J. O. Beran,  K. Brandhorst,  
 S. T. Brown,  E. F. C. Byrd,  A. K. Chakraborty,  C.-L. Cheng,  
 Siu Hung Chien,  D. M. Chipman,  D. L. Crittenden,  H. Dachsel,  
 R. J. Doerksen,  A. D. Dutoi,  L. Fusti-Molnar,  W. A. Goddard III,  
 A. Golubeva-Zadorozhnaya,  S. R. Gwaltney,  G. Hawkins,  A. Heyden,  
 S. Hirata,  G. Kedziora,  F. J. Keil,  C. Kelley,  Jihan Kim,  R. A. King,  
 R. Z. Khaliullin,  P. P. Korambath,  W. Kurlancheek,  A. M. Lee,  M. S. Lee,  
 S. V. Levchenko,  Ching Yeh Lin,  D. Liotard,  R. C. Lochan,  I. Lotan,  
 P. E. Maslen,  N. Nair,  D. P. O'Neill,  D. Neuhauser,  E. Neuscamman,  
 C. M. Oana,  R. Olson,  B. Peters,  R. Peverati,  P. A. Pieniazek,  
 Y. M. Rhee,  J. Ritchie,  M. A. Rohrdanz,  E. Rosta,  N. J. Russ,  
 H. F. Schaefer III,  N. E. Schultz,  N. Shenvi,  A. C. Simmonett,  A. Sodt,  
 D. Stuck,  K. S. Thanthiriwatte,  V. Vanovschi,  Tao Wang,  A. Warshel,  
 C. F. Williams,  Q. Wu,  X. Xu,  W. Zhang

 Please cite Q-Chem as follows:
 Y. Shao et al., Mol. Phys. 113, 184-215 (2015)
 DOI: 10.1080/00268976.2014.952696

 Q-Chem 5.2.1 for Intel X86 EM64T Linux

 Parts of Q-Chem use Armadillo 8.300.2 (Tropical Shenanigans).
 http://arma.sourceforge.net/

 Q-Chem begins on Tue Feb  8 16:44:13 2022  

Host: 
0

     Scratch files written to /gpfs/fs0/scratch/a/aspuru/rhickman/descriptor_computation/qchem362391//
 Jul1719 |scratch|qcdevops|jenkins|workspace|build_RNUM -1
Processing $rem in /scinet/niagara/software/commercial/qc52/config/preferences:
	 MEM_TOTAL  4000 
NAlpha2: 200
NElect   200
Mult     1

Checking the input file for inconsistencies... 	...done.

--------------------------------------------------------------
User input:
--------------------------------------------------------------
$molecule
0 1
F         7.09131014420000   -2.96449320820000    0.24006270790000
C         6.10758933790000   -2.07240175650000    0.37079248260000
F         6.54303873240000   -1.06143813200000    1.11663222560000
C         4.91200269320000   -2.22847584350000   -0.18020190800000
C         3.76358586770000   -1.34468132290000   -0.11821711720000
C         2.59978332970000   -1.72097955030000   -0.79608608290000
C         1.47407537700000   -0.92976373060000   -0.78126754480000
C         1.46674339490000    0.27842035880000   -0.07864323770000
N         0.33243369490000    1.08337382130000   -0.05847409680000
C        -0.94503776810000    0.50816239630000   -0.08438548720000
C        -1.21231469390000   -0.66356427960000    0.62288533260000
C        -2.47350214330000   -1.22089438680000    0.59854392140000
C        -3.50692676550000   -0.63123088400000   -0.12749646090000
C        -4.84922984340000   -1.22845992400000   -0.15022863970000
C        -5.41062788420000   -1.76037337720000    1.00872756500000
C        -6.67445320050000   -2.31973235880000    0.98678520630000
C        -7.39736121390000   -2.36239272760000   -0.19361875430000
C        -6.84856299200000   -1.83896813110000   -1.35233153900000
C        -5.58699749200000   -1.27448830510000   -1.33126811140000
C        -3.23307263220000    0.54090928670000   -0.83019960780000
C        -1.97461047700000    1.10463012310000   -0.81136956310000
C         0.45564396610000    2.47969607510000   -0.01250765330000
C         1.45425666840000    3.12626958630000   -0.73938125830000
C         1.56838111480000    4.50209155430000   -0.69086998550000
C         0.68802843530000    5.25278005080000    0.07101171530000
C        -0.30966222920000    4.61492561550000    0.78974813460000
C        -0.42670450250000    3.23889763270000    0.75456031480000
C         2.62635393330000    0.65869698470000    0.60275571400000
C         3.75124336360000   -0.13500209620000    0.58217126540000
H         4.78858386760000   -3.13885594210000   -0.74935567680000
H         2.58645836190000   -2.64755101250000   -1.35135828230000
H         0.59066151580000   -1.23590892470000   -1.32168527160000
H        -0.42376538620000   -1.13101539140000    1.19451038850000
H        -2.65832423090000   -2.13594917400000    1.14170269830000
H        -4.85917319920000   -1.71488395510000    1.93672423620000
H        -7.09898411040000   -2.72259497190000    1.89500637860000
H        -8.38390005080000   -2.80149784200000   -0.21043533300000
H        -7.40604214940000   -1.87299295800000   -2.27724500540000
H        -5.15795826300000   -0.88329666850000   -2.24246181010000
H        -4.02145643300000    1.02455969560000   -1.38786447580000
H        -1.77894425230000    2.01354070080000   -1.36142245290000
H         2.13458654010000    2.54341517060000   -1.34295374690000
H         2.34521081420000    4.99158659690000   -1.25943181490000
H         0.77850613270000    6.32779772500000    0.10371649710000
H        -0.99787761370000    5.19210138640000    1.38943452610000
H        -1.20006540400000    2.74212968520000    1.32196892140000
H         2.63358694090000    1.58422467080000    1.15901504180000
H         4.62378597460000    0.18783751060000    1.12568583400000
$end

$rem
BASIS = 6-31G*
GUI = 2
METHOD = B3LYP
PRINT_ORBITALS false
MOLDEN_FORMAT false
--------------------------------------------------------------
 ----------------------------------------------------------------
             Standard Nuclear Orientation (Angstroms)
    I     Atom           X                Y                Z
 ----------------------------------------------------------------
    1      F       7.0302958147    -3.3419105162    -0.0774215102
    2      C       6.0979760247    -2.4045603247     0.1036267833
    3      F       6.6123230303    -1.4266581651     0.8432855369
    4      C       4.8751481948    -2.4941235126    -0.4004088284
    5      C       3.7753188742    -1.5560250441    -0.2814853112
    6      C       2.5682487266    -1.8653167121    -0.9162004920
    7      C       1.4846176184    -1.0201329323    -0.8464261629
    8      C       1.5651328463     0.1770488690    -0.1296859720
    9      N       0.4738110916     1.0362996883    -0.0540538113
   10      C      -0.8306153707     0.5248428774    -0.0351737293
   11      C      -1.1272794525    -0.6421087914     0.6682653910
   12      C      -2.4145061830    -1.1365279606     0.6882695069
   13      C      -3.4455070825    -0.4868362861     0.0117031715
   14      C      -4.8155987557    -1.0171471226     0.0361174055
   15      C      -5.3561091277    -1.5369882729     1.2103801030
   16      C      -6.6459734846    -2.0333377505     1.2328635256
   17      C      -7.4165011474    -2.0240436767     0.0822245058
   18      C      -6.8889761315    -1.5120658576    -1.0913870928
   19      C      -5.6011482128    -1.0104791282    -1.1145960850
   20      C      -3.1420768553     0.6801421531    -0.6874332948
   21      C      -1.8574724856     1.1811541852    -0.7127572970
   22      C       0.6678008371     2.4241236606     0.0035840393
   23      C       1.6675164313     3.0310144141    -0.7552849984
   24      C       1.8515240132     4.3987748539    -0.6949823481
   25      C       1.0404684765     5.1810420589     0.1107872972
   26      C       0.0417813909     4.5829272167     0.8615933466
   27      C      -0.1446182039     3.2149184593     0.8147178020
   28      C       2.7683570866     0.4904701436     0.5087730922
   29      C       3.8508188414    -0.3570731833     0.4332413818
   30      H       4.6842158443    -3.3893365735    -0.9749508687
   31      H       2.4869375759    -2.7822923803    -1.4815177176
   32      H       0.5663150079    -1.2750280252    -1.3543090791
   33      H      -0.3407461667    -1.1555868977     1.2019145096
   34      H      -2.6226916830    -2.0488981417     1.2274776067
   35      H      -4.7665909706    -1.5315319192     2.1158015240
   36      H      -7.0534743194    -2.4275137639     2.1526237207
   37      H      -8.4234760510    -2.4139648607     0.1000567619
   38      H      -7.4838157365    -1.5058200546    -1.9933474325
   39      H      -5.1898448424    -0.6281385765    -2.0376479541
   40      H      -3.9270866963     1.2095958460    -1.2069476612
   41      H      -1.6390435780     2.0869524303    -1.2593652396
   42      H       2.2935700797     2.4239659372    -1.3927932174
   43      H       2.6284194450     4.8574613366    -1.2885920945
   44      H       1.1853407887     6.2497692141     0.1526573026
   45      H      -0.5925778770     5.1847452797     1.4954698269
   46      H      -0.9184581700     2.7488144931     1.4069481659
   47      H       2.8435761416     1.4066883797     1.0753103739
   48      H       4.7592227491    -0.0850154269     0.9448574720
 ----------------------------------------------------------------
 Molecular Point Group                 C1    NOp =  1
 Largest Abelian Subgroup              C1    NOp =  1
 Nuclear Repulsion Energy =        2412.34962877 hartrees
 There are      100 alpha and      100 beta electrons
 Requested basis set is 6-31G(d)
 There are 154 shells and 473 basis functions

 Total QAlloc Memory Limit   4000 MB
 Mega-Array Size       188 MB
 MEM_STATIC part       192 MB
 A cutoff of  1.0D-08 yielded   4764 shell pairs
 There are     47048 function pairs
 Smallest overlap matrix eigenvalue = 3.50E-04

 Scale SEOQF with 1.000000e-02/1.000000e-02/1.000000e-01

 Standard Electronic Orientation quadrupole field applied
 Nucleus-field energy     =     0.0000000074 hartrees
 Guess from superposition of atomic densities
 Warning:  Energy on first SCF cycle will be non-variational
 SAD guess density has 200.000000 electrons

 -----------------------------------------------------------------------
  General SCF calculation program by
  Eric Jon Sundstrom, Paul Horn, Yuezhi Mao, Dmitri Zuev, Alec White,
  David Stuck, Shaama M.S., Shane Yost, Joonho Lee, David Small,
  Daniel Levine, Susi Lehtola, Hugh Burton, Evgeny Epifanovsky,
  Bang C. Huynh
 -----------------------------------------------------------------------
 Exchange:     0.2000 Hartree-Fock + 0.0800 Slater + 0.7200 B88
 Correlation:  0.1900 VWN1RPA + 0.8100 LYP
 Using SG-1 standard quadrature grid
 A restricted SCF calculation will be
 performed using DIIS
 SCF converges when DIIS error is below 1.0e-05
 ---------------------------------------
  Cycle       Energy         DIIS error
 ---------------------------------------
    1   -1264.1048612340      3.80e-02  
    2   -1256.2014404924      3.72e-03  
    3   -1255.9983034316      4.65e-03  
    4   -1256.5734654204      1.23e-03  
    5   -1256.6127201144      4.29e-04  
    6   -1256.6171522850      2.15e-04  
    7   -1256.6185199264      4.62e-05  
    8   -1256.6185696972      2.18e-05  
    9   -1256.6185834514      4.44e-06  Convergence criterion met
 ---------------------------------------
 SCF time:   CPU 161.20s  wall 162.00s 
 SCF   energy in the final basis set =    -1256.6185834514
 Total energy in the final basis set =    -1256.6185834514
 
 --------------------------------------------------------------
 
                    Orbital Energies (a.u.)
 --------------------------------------------------------------
 
 Alpha MOs
 -- Occupied --
-24.7398 -24.7290 -14.3689 -10.3505 -10.2286 -10.2279 -10.2277 -10.1995
-10.1991 -10.1928 -10.1914 -10.1900 -10.1885 -10.1884 -10.1883 -10.1882
-10.1872 -10.1867 -10.1865 -10.1858 -10.1857 -10.1855 -10.1855 -10.1855
-10.1854 -10.1841 -10.1839 -10.1838 -10.1835  -1.2797  -1.2191  -0.9823
 -0.8720  -0.8657  -0.8555  -0.8432  -0.8032  -0.7797  -0.7596  -0.7538
 -0.7499  -0.7472  -0.7432  -0.7324  -0.7040  -0.6496  -0.6385  -0.6244
 -0.6148  -0.6124  -0.6063  -0.5936  -0.5887  -0.5720  -0.5669  -0.5421
 -0.5401  -0.5257  -0.5216  -0.5137  -0.4913  -0.4797  -0.4752  -0.4692
 -0.4568  -0.4521  -0.4454  -0.4430  -0.4423  -0.4362  -0.4338  -0.4321
 -0.4275  -0.4254  -0.4248  -0.4189  -0.4181  -0.4070  -0.3869  -0.3846
 -0.3788  -0.3739  -0.3702  -0.3612  -0.3609  -0.3552  -0.3471  -0.3434
 -0.3377  -0.3348  -0.3245  -0.2914  -0.2714  -0.2616  -0.2525  -0.2510
 -0.2505  -0.2403  -0.2254  -0.1772
 -- Virtual --
 -0.0318  -0.0221  -0.0142   0.0021   0.0046   0.0078   0.0115   0.0368
  0.0755   0.0888   0.0964   0.0992   0.1086   0.1230   0.1295   0.1423
  0.1444   0.1454   0.1572   0.1576   0.1590   0.1613   0.1635   0.1781
  0.1786   0.1830   0.1841   0.1884   0.1912   0.1923   0.1963   0.1985
  0.2062   0.2167   0.2192   0.2556   0.2649   0.2688   0.2812   0.2927
  0.2948   0.3079   0.3087   0.3144   0.3179   0.3221   0.3314   0.3374
  0.3513   0.3694   0.3731   0.3869   0.3883   0.3989   0.4152   0.4232
  0.4556   0.4668   0.4835   0.4997   0.5050   0.5101   0.5185   0.5222
  0.5292   0.5360   0.5416   0.5451   0.5472   0.5482   0.5522   0.5556
  0.5633   0.5641   0.5728   0.5756   0.5807   0.5821   0.5826   0.5836
  0.5877   0.5913   0.5948   0.5960   0.5990   0.6025   0.6040   0.6053
  0.6082   0.6125   0.6148   0.6159   0.6193   0.6209   0.6243   0.6284
  0.6340   0.6396   0.6425   0.6454   0.6528   0.6595   0.6671   0.6748
  0.6842   0.6879   0.6901   0.6989   0.7031   0.7354   0.7509   0.7648
  0.7817   0.8029   0.8065   0.8129   0.8151   0.8182   0.8254   0.8312
  0.8328   0.8377   0.8426   0.8455   0.8464   0.8474   0.8490   0.8540
  0.8657   0.8701   0.8733   0.8739   0.8854   0.8871   0.9004   0.9029
  0.9202   0.9216   0.9302   0.9405   0.9523   0.9614   0.9667   0.9777
  0.9810   0.9929   1.0054   1.0107   1.0152   1.0214   1.0228   1.0366
  1.0414   1.0442   1.0705   1.0982   1.1001   1.1043   1.1211   1.1308
  1.1359   1.1524   1.1594   1.1602   1.1649   1.1682   1.1753   1.1815
  1.1916   1.1962   1.1988   1.2083   1.2196   1.2222   1.2312   1.2522
  1.2546   1.2683   1.2851   1.3027   1.3083   1.3120   1.3237   1.3474
  1.3562   1.3723   1.4026   1.4077   1.4189   1.4214   1.4288   1.4317
  1.4396   1.4473   1.4524   1.4638   1.4675   1.4694   1.4745   1.4777
  1.4865   1.4903   1.4957   1.4997   1.5009   1.5118   1.5132   1.5142
  1.5166   1.5259   1.5294   1.5361   1.5993   1.6495   1.6664   1.7060
  1.7197   1.7207   1.7410   1.7579   1.7788   1.7870   1.7920   1.7939
  1.7977   1.8025   1.8109   1.8404   1.8408   1.8417   1.8463   1.8489
  1.8555   1.8632   1.8783   1.8837   1.8972   1.9083   1.9118   1.9249
  1.9362   1.9369   1.9477   1.9609   1.9682   1.9731   1.9771   1.9883
  1.9964   1.9997   2.0111   2.0194   2.0378   2.0420   2.0689   2.0734
  2.0775   2.0813   2.0896   2.0953   2.1008   2.1348   2.1367   2.1391
  2.1459   2.1560   2.1614   2.1657   2.1684   2.1705   2.1763   2.1847
  2.1986   2.2139   2.2356   2.2417   2.2541   2.2618   2.2784   2.2966
  2.3048   2.3074   2.3191   2.3217   2.3250   2.3289   2.3317   2.3343
  2.3567   2.3599   2.3664   2.4110   2.4397   2.4479   2.4895   2.5143
  2.5258   2.5430   2.5572   2.5694   2.5903   2.5974   2.6026   2.6198
  2.6316   2.6418   2.6422   2.6582   2.6722   2.6745   2.6868   2.6949
  2.7111   2.7272   2.7445   2.7485   2.7526   2.7648   2.7680   2.7683
  2.7705   2.7871   2.7934   2.7962   2.8352   2.8670   2.8690   2.8921
  2.9188   2.9562   2.9614   2.9993   3.0008   3.0247   3.0630   3.1512
  3.1749   3.2511   3.2771   3.3356   3.4124   3.4595   3.4856   3.5111
  4.0827   4.1048   4.1054   4.1169   4.1240   4.1266   4.1293   4.1351
  4.1361   4.1475   4.1780   4.1925   4.2097   4.2865   4.3156   4.3361
  4.3382   4.3455   4.3507   4.3769   4.4096   4.4668   4.5115   4.6786
  4.7150   4.7448   4.8021   4.8273   5.2861
 --------------------------------------------------------------
 
          Ground-State Mulliken Net Atomic Charges

     Atom                 Charge (a.u.)
  ----------------------------------------
      1 F                    -0.252063
      2 C                     0.536772
      3 F                    -0.238000
      4 C                    -0.298724
      5 C                     0.198659
      6 C                    -0.205904
      7 C                    -0.176517
      8 C                     0.298337
      9 N                    -0.653025
     10 C                     0.284904
     11 C                    -0.173657
     12 C                    -0.185060
     13 C                     0.091643
     14 C                     0.087241
     15 C                    -0.171566
     16 C                    -0.132977
     17 C                    -0.125172
     18 C                    -0.133018
     19 C                    -0.171514
     20 C                    -0.184651
     21 C                    -0.172735
     22 C                     0.277081
     23 C                    -0.165595
     24 C                    -0.138292
     25 C                    -0.127282
     26 C                    -0.138068
     27 C                    -0.165012
     28 C                    -0.176466
     29 C                    -0.205475
     30 H                     0.157055
     31 H                     0.129238
     32 H                     0.149165
     33 H                     0.148380
     34 H                     0.134605
     35 H                     0.129540
     36 H                     0.128003
     37 H                     0.126798
     38 H                     0.127956
     39 H                     0.129489
     40 H                     0.134610
     41 H                     0.148208
     42 H                     0.147321
     43 H                     0.131317
     44 H                     0.126147
     45 H                     0.131288
     46 H                     0.146910
     47 H                     0.150041
     48 H                     0.140063
  ----------------------------------------
  Sum of atomic charges =     0.000000

 -----------------------------------------------------------------
                    Cartesian Multipole Moments
 -----------------------------------------------------------------
    Charge (ESU x 10^10)
                 0.0000
    Dipole Moment (Debye)
         X      -1.4538      Y       0.5239      Z      -0.3512
       Tot       1.5847
    Quadrupole Moments (Debye-Ang)
        XX    -166.4523     XY       6.1933     YY    -155.5535
        XZ      -1.9474     YZ      -0.1159     ZZ    -159.4896
    Octopole Moments (Debye-Ang^2)
       XXX     -50.4641    XXY      -5.2733    XYY      39.9701
       YYY      11.5529    XXZ     -16.7770    XYZ      11.5462
       YYZ       3.5224    XZZ      14.8219    YZZ     -18.9960
       ZZZ       7.8163
    Hexadecapole Moments (Debye-Ang^3)
      XXXX  -15920.0634   XXXY     372.1271   XXYY   -3564.4108
      XYYY    -222.0044   YYYY   -4952.7007   XXXZ      81.8068
      XXYZ     -56.6297   XYYZ     -88.2235   YYYZ      33.9493
      XXZZ   -2641.8987   XYZZ     -60.3591   YYZZ    -972.1867
      XZZZ      42.1247   YZZZ     -16.3896   ZZZZ    -707.3971
 -----------------------------------------------------------------
Archival summary:
1\1\nia2015.scinet.local\SP\ProcedureUnspecified\6-31G*\212619\rhickman\TueFeb816:46:552022TueFeb816:46:552022\0\\#,ProcedureUnspecified,6-31G*,\\0,1\N\C,1,1.39105\C,2,1.39766,1,120.783\H,3,1.07991,2,119.495,1,0.560712,0\C,3,1.37603,2,120.448,1,-179.971,0\H,5,1.0803,3,119.25,2,-179.558,0\C,2,1.39772,1,120.798,3,179.977,0\H,7,1.07985,2,119.332,1,0.66541,0\C,7,1.37687,2,120.91,1,-179.871,0\H,9,1.07748,7,118.773,2,-179.54,0\C,9,1.39786,7,120.901,2,-0.152882,0\C,1,1.40124,2,120.371,3,33.4951,0\C,12,1.39438,1,120.477,2,-141.962,0\H,13,1.08026,12,119.449,1,0.356805,0\C,13,1.37908,12,120.401,1,-179.665,0\H,15,1.08003,13,119.349,12,179.164,0\C,15,1.39381,13,121.076,12,0.0281975,0\C,17,1.39385,15,118.21,13,0.0629189,0\H,18,1.08005,17,119.571,15,-179.284,0\C,18,1.37906,17,121.083,15,-0.0497644,0\H,20,1.08031,18,120.133,17,179.715,0\C,1,1.4025,2,120.328,3,-146.48,0\C,22,1.39403,1,120.307,2,-141.655,0\H,23,1.08019,22,119.455,1,0.646289,0\C,23,1.38144,22,120.19,1,-179.49,0\H,25,1.08,23,119.504,22,-179.867,0\C,25,1.38522,23,120.429,22,-0.369924,0\H,27,1.07931,25,120.218,23,-179.784,0\C,27,1.38529,25,119.574,23,0.263351,0\H,29,1.07997,27,120.069,25,179.603,0\C,29,1.3814,27,120.433,25,0.154406,0\H,31,1.08022,29,120.33,27,179.298,0\C,11,1.45045,9,123.759,7,-179.927,0\H,33,1.08072,11,116.447,9,179.5,0\C,33,1.32566,11,128.651,9,-0.538359,0\F,35,1.32964,33,128.172,11,-0.0251521,0\F,35,1.3344,33,123.055,11,-179.983,0\C,17,1.46935,15,120.898,13,179.997,0\C,38,1.3933,17,120.682,15,40.927,0\H,39,1.08045,38,119.514,17,1.16865,0\C,39,1.38225,38,120.643,17,179.867,0\H,41,1.08047,39,119.79,38,-179.612,0\C,41,1.38484,39,120.218,38,0.255952,0\H,43,1.07998,41,120.176,39,179.878,0\C,43,1.38484,41,119.649,39,-0.119718,0\H,45,1.08046,43,119.994,41,179.734,0\C,45,1.38225,43,120.218,41,-0.133635,0\H,47,1.08044,45,119.824,43,178.937,0\\\@

 Total job time:  162.14s(wall), 161.73s(cpu) 
 Tue Feb  8 16:46:55 2022

        *************************************************************
        *                                                           *
        *  Thank you very much for using Q-Chem.  Have a nice day.  *
        *                                                           *
        *************************************************************


