48
 energy: -77.727653065293 gnorm: 0.000064986588 xtb: 6.4.1 (23d549d)
F         7.09131014420000   -2.96449320820000    0.24006270790000
C         6.10758933790000   -2.07240175650000    0.37079248260000
F         6.54303873240000   -1.06143813200000    1.11663222560000
C         4.91200269320000   -2.22847584350000   -0.18020190800000
C         3.76358586770000   -1.34468132290000   -0.11821711720000
C         2.59978332970000   -1.72097955030000   -0.79608608290000
C         1.47407537700000   -0.92976373060000   -0.78126754480000
C         1.46674339490000    0.27842035880000   -0.07864323770000
N         0.33243369490000    1.08337382130000   -0.05847409680000
C        -0.94503776810000    0.50816239630000   -0.08438548720000
C        -1.21231469390000   -0.66356427960000    0.62288533260000
C        -2.47350214330000   -1.22089438680000    0.59854392140000
C        -3.50692676550000   -0.63123088400000   -0.12749646090000
C        -4.84922984340000   -1.22845992400000   -0.15022863970000
C        -5.41062788420000   -1.76037337720000    1.00872756500000
C        -6.67445320050000   -2.31973235880000    0.98678520630000
C        -7.39736121390000   -2.36239272760000   -0.19361875430000
C        -6.84856299200000   -1.83896813110000   -1.35233153900000
C        -5.58699749200000   -1.27448830510000   -1.33126811140000
C        -3.23307263220000    0.54090928670000   -0.83019960780000
C        -1.97461047700000    1.10463012310000   -0.81136956310000
C         0.45564396610000    2.47969607510000   -0.01250765330000
C         1.45425666840000    3.12626958630000   -0.73938125830000
C         1.56838111480000    4.50209155430000   -0.69086998550000
C         0.68802843530000    5.25278005080000    0.07101171530000
C        -0.30966222920000    4.61492561550000    0.78974813460000
C        -0.42670450250000    3.23889763270000    0.75456031480000
C         2.62635393330000    0.65869698470000    0.60275571400000
C         3.75124336360000   -0.13500209620000    0.58217126540000
H         4.78858386760000   -3.13885594210000   -0.74935567680000
H         2.58645836190000   -2.64755101250000   -1.35135828230000
H         0.59066151580000   -1.23590892470000   -1.32168527160000
H        -0.42376538620000   -1.13101539140000    1.19451038850000
H        -2.65832423090000   -2.13594917400000    1.14170269830000
H        -4.85917319920000   -1.71488395510000    1.93672423620000
H        -7.09898411040000   -2.72259497190000    1.89500637860000
H        -8.38390005080000   -2.80149784200000   -0.21043533300000
H        -7.40604214940000   -1.87299295800000   -2.27724500540000
H        -5.15795826300000   -0.88329666850000   -2.24246181010000
H        -4.02145643300000    1.02455969560000   -1.38786447580000
H        -1.77894425230000    2.01354070080000   -1.36142245290000
H         2.13458654010000    2.54341517060000   -1.34295374690000
H         2.34521081420000    4.99158659690000   -1.25943181490000
H         0.77850613270000    6.32779772500000    0.10371649710000
H        -0.99787761370000    5.19210138640000    1.38943452610000
H        -1.20006540400000    2.74212968520000    1.32196892140000
H         2.63358694090000    1.58422467080000    1.15901504180000
H         4.62378597460000    0.18783751060000    1.12568583400000
