
Running Job 1 of 1 fragments/C127/conf-3/spe_input.inp
qchem fragments/C127/conf-3/spe_input.inp_364447.0 /gpfs/fs0/scratch/a/aspuru/rhickman/descriptor_computation/qchem364447/ 0
/scinet/niagara/software/commercial/qc52/exe/qcprog.exe_s fragments/C127/conf-3/spe_input.inp_364447.0 /gpfs/fs0/scratch/a/aspuru/rhickman/descriptor_computation/qchem364447/
                  Welcome to Q-Chem
     A Quantum Leap Into The Future Of Chemistry


 Q-Chem 5.2, Q-Chem, Inc., Pleasanton, CA (2019)

 License issued to: SRG Alan Aspuru-Guzik, University of Toronto

 Yihan Shao,  Zhengting Gan,  E. Epifanovsky,  A. T. B. Gilbert,  M. Wormit,  
 J. Kussmann,  A. W. Lange,  A. Behn,  Jia Deng,  Xintian Feng,  D. Ghosh,  
 M. Goldey,  P. R. Horn,  L. D. Jacobson,  I. Kaliman,  T. Kus,  A. Landau,  
 Jie Liu,  E. I. Proynov,  R. M. Richard,  R. P. Steele,  E. J. Sundstrom,  
 H. L. Woodcock III,  P. M. Zimmerman,  D. Zuev,  B. Albrecht,  E. Alguire,  
 S. A. Baeppler,  D. Barton,  Z. Benda,  Y. A. Bernard,  E. J. Berquist,  
 K. B. Bravaya,  H. Burton,  D. Casanova,  Chun-Min Chang,  Yunqing Chen,  
 A. Chien,  K. D. Closser,  M. P. Coons,  S. Coriani,  S. Dasgupta,  
 A. L. Dempwolff,  M. Diedenhofen,  Hainam Do,  R. G. Edgar,  Po-Tung Fang,  
 S. Faraji,  S. Fatehi,  Qingguo Feng,  K. D. Fenk,  J. Fosso-Tande,  
 J. Gayvert,  Qinghui Ge,  A. Ghysels,  G. Gidofalvi,  J. Gomes,  
 J. Gonthier,  A. Gunina,  D. Hait,  M. W. D. Hanson-Heine,  
 P. H. P. Harbach,  A. W. Hauser,  M. F. Herbst,  J. E. Herr,  
 E. G. Hohenstein,  Z. C. Holden,  Kerwin Hui,  B. C. Huynh,  T.-C. Jagau,  
 Hyunjun Ji,  B. Kaduk,  K. Khistyaev,  Jaehoon Kim,  P. Klunzinger,  K. Koh,  
 D. Kosenkov,  L. Koulias,  T. Kowalczyk,  C. M. Krauter,  A. Kunitsa,  
 Ka Un Lao,  A. Laurent,  K. V. Lawler,  Joonho Lee,  D. Lefrancois,  
 S. Lehtola,  D. S. Levine,  Yi-Pei Li,  You-Sheng Lin,  Fenglai Liu,  
 E. Livshits,  A. Luenser,  P. Manohar,  E. Mansoor,  S. F. Manzer,  
 Shan-Ping Mao,  Yuezhi Mao,  N. Mardirossian,  A. V. Marenich,  
 T. Markovich,  L. A. Martinez-Martinez,  S. A. Maurer,  N. J. Mayhall,  
 S. C. McKenzie,  J.-M. Mewes,  P. Morgante,  A. F. Morrison,  
 J. W. Mullinax,  K. Nanda,  T. S. Nguyen-Beck,  R. Olivares-Amaya,  
 J. A. Parkhill,  Zheng Pei,  T. M. Perrine,  F. Plasser,  P. Pokhilko,  
 S. Prager,  A. Prociuk,  E. Ramos,  D. R. Rehn,  F. Rob,  M. Scheurer,  
 M. Schneider,  N. Sergueev,  S. M. Sharada,  S. Sharma,  D. W. Small,  
 T. Stauch,  T. Stein,  Yu-Chuan Su,  A. J. W. Thom,  A. Tkatchenko,  
 T. Tsuchimochi,  N. M. Tubman,  L. Vogt,  M. L. Vidal,  O. Vydrov,  
 M. A. Watson,  J. Wenzel,  M. de Wergifosse,  T. A. Wesolowski,  A. White,  
 J. Witte,  A. Yamada,  Jun Yang,  K. Yao,  S. Yeganeh,  S. R. Yost,  
 Zhi-Qiang You,  A. Zech,  Igor Ying Zhang,  Xing Zhang,  Yan Zhao,  
 Ying Zhu,  B. R. Brooks,  G. K. L. Chan,  C. J. Cramer,  M. S. Gordon,  
 W. J. Hehre,  A. Klamt,  M. W. Schmidt,  C. D. Sherrill,  D. G. Truhlar,  
 A. Aspuru-Guzik,  R. Baer,  A. T. Bell,  N. A. Besley,  Jeng-Da Chai,  
 A. E. DePrince, III,  R. A. DiStasio Jr.,  A. Dreuw,  B. D. Dunietz,  
 T. R. Furlani,  Chao-Ping Hsu,  Yousung Jung,  Jing Kong,  D. S. Lambrecht,  
 WanZhen Liang,  C. Ochsenfeld,  V. A. Rassolov,  L. V. Slipchenko,  
 J. E. Subotnik,  T. Van Voorhis,  J. M. Herbert,  A. I. Krylov,  
 P. M. W. Gill,  M. Head-Gordon

 Contributors to earlier versions of Q-Chem not listed above: 
 R. D. Adamson,  B. Austin,  J. Baker,  G. J. O. Beran,  K. Brandhorst,  
 S. T. Brown,  E. F. C. Byrd,  A. K. Chakraborty,  C.-L. Cheng,  
 Siu Hung Chien,  D. M. Chipman,  D. L. Crittenden,  H. Dachsel,  
 R. J. Doerksen,  A. D. Dutoi,  L. Fusti-Molnar,  W. A. Goddard III,  
 A. Golubeva-Zadorozhnaya,  S. R. Gwaltney,  G. Hawkins,  A. Heyden,  
 S. Hirata,  G. Kedziora,  F. J. Keil,  C. Kelley,  Jihan Kim,  R. A. King,  
 R. Z. Khaliullin,  P. P. Korambath,  W. Kurlancheek,  A. M. Lee,  M. S. Lee,  
 S. V. Levchenko,  Ching Yeh Lin,  D. Liotard,  R. C. Lochan,  I. Lotan,  
 P. E. Maslen,  N. Nair,  D. P. O'Neill,  D. Neuhauser,  E. Neuscamman,  
 C. M. Oana,  R. Olson,  B. Peters,  R. Peverati,  P. A. Pieniazek,  
 Y. M. Rhee,  J. Ritchie,  M. A. Rohrdanz,  E. Rosta,  N. J. Russ,  
 H. F. Schaefer III,  N. E. Schultz,  N. Shenvi,  A. C. Simmonett,  A. Sodt,  
 D. Stuck,  K. S. Thanthiriwatte,  V. Vanovschi,  Tao Wang,  A. Warshel,  
 C. F. Williams,  Q. Wu,  X. Xu,  W. Zhang

 Please cite Q-Chem as follows:
 Y. Shao et al., Mol. Phys. 113, 184-215 (2015)
 DOI: 10.1080/00268976.2014.952696

 Q-Chem 5.2.1 for Intel X86 EM64T Linux

 Parts of Q-Chem use Armadillo 8.300.2 (Tropical Shenanigans).
 http://arma.sourceforge.net/

 Q-Chem begins on Tue Feb  8 16:52:59 2022  

Host: 
0

     Scratch files written to /gpfs/fs0/scratch/a/aspuru/rhickman/descriptor_computation/qchem364447//
 Jul1719 |scratch|qcdevops|jenkins|workspace|build_RNUM -1
Processing $rem in /scinet/niagara/software/commercial/qc52/config/preferences:
	 MEM_TOTAL  4000 
NAlpha2: 92
NElect   92
Mult     1

Checking the input file for inconsistencies... 	...done.

--------------------------------------------------------------
User input:
--------------------------------------------------------------
$molecule
0 1
C        -2.42060210710000   -1.85205640630000   -0.46238265460000
C        -2.40862701770000   -0.71289219010000    0.21655216760000
C        -1.35914602520000    0.30367985620000    0.14778076970000
C        -1.72437860500000    1.65129360750000    0.21814239650000
N        -0.87666753430000    2.65165118670000    0.09068807140000
C         0.39754083450000    2.37250727900000   -0.09522963310000
C         0.91459066390000    1.07431342820000   -0.13987120900000
C         2.35803228050000    0.88754684960000   -0.26487327230000
C         3.07245085960000   -0.03040180700000    0.36932415590000
C         0.00311198470000    0.01703818460000   -0.02346165590000
C         0.48616568460000   -1.39970057340000   -0.11036583150000
O         1.01827731910000   -1.86802608420000   -1.07418185850000
O         0.28624353820000   -2.13540095370000    1.00489891950000
H        -3.24676188790000   -2.53802655660000   -0.38678759190000
H        -1.62652014630000   -2.13714436350000   -1.13129908270000
H        -3.25685755140000   -0.44213984460000    0.83383325950000
H        -2.76055886670000    1.92803311480000    0.36237272280000
H         1.05629691570000    3.22525176460000   -0.19286395040000
H         2.85271935390000    1.61681106080000   -0.89332713140000
H         2.63577946010000   -0.75053097420000    1.04062041680000
H         4.13942891470000   -0.09197509330000    0.24430006170000
H        -0.20478227810000   -1.65343366350000    1.68327658470000
$end

$rem
BASIS = 6-31G*
GUI = 2
METHOD = B3LYP
PRINT_ORBITALS false
MOLDEN_FORMAT false
--------------------------------------------------------------
 ----------------------------------------------------------------
             Standard Nuclear Orientation (Angstroms)
    I     Atom           X                Y                Z
 ----------------------------------------------------------------
    1      C       2.9078891775    -0.8825420805     0.4982843287
    2      C       2.5042948381     0.1920604723    -0.1658933356
    3      C       1.1622146716     0.7707079891    -0.1063411572
    4      C       1.0283372638     2.1615556717    -0.1513742801
    5      N      -0.1202038335     2.7951696264    -0.0290605242
    6      C      -1.2160691668     2.0802299407     0.1259688223
    7      C      -1.2412611091     0.6824723040     0.1426908295
    8      C      -2.5271338266    -0.0046592534     0.2344107742
    9      C      -2.8609418294    -1.1031334441    -0.4267674846
   10      C      -0.0131230561     0.0179357090     0.0320402794
   11      C       0.0347506034    -1.4795180628     0.0901972679
   12      O      -0.3121233051    -2.1245320154     1.0362672453
   13      O       0.4990407527    -2.0750099266    -1.0300096222
   14      H       3.9243020496    -1.2307462159     0.4314382551
   15      H       2.2557422685    -1.4429219979     1.1463346731
   16      H       3.2113602084     0.7571464383    -0.7613546949
   17      H       1.9017932587     2.7893268425    -0.2698422449
   18      H      -2.1352299618     2.6431294212     0.2205880593
   19      H      -3.2573443762     0.4902593544     0.8615821769
   20      H      -2.1875626645    -1.6091617070    -1.0978878135
   21      H      -3.8389942257    -1.5401630060    -0.3253616869
   22      H       0.7982752987    -1.4373764551    -1.6914303054
 ----------------------------------------------------------------
 Molecular Point Group                 C1    NOp =  1
 Largest Abelian Subgroup              C1    NOp =  1
 Nuclear Repulsion Energy =         759.55426989 hartrees
 There are       46 alpha and       46 beta electrons
 Requested basis set is 6-31G(d)
 There are 70 shells and 213 basis functions

 Total QAlloc Memory Limit   4000 MB
 Mega-Array Size       188 MB
 MEM_STATIC part       192 MB
 A cutoff of  1.0D-08 yielded   1838 shell pairs
 There are     18656 function pairs
 Smallest overlap matrix eigenvalue = 4.95E-04

 Scale SEOQF with 1.000000e-01/1.000000e-01/1.000000e-01

 Standard Electronic Orientation quadrupole field applied
 Nucleus-field energy     =     0.0000000240 hartrees
 Guess from superposition of atomic densities
 Warning:  Energy on first SCF cycle will be non-variational
 SAD guess density has 92.000000 electrons

 -----------------------------------------------------------------------
  General SCF calculation program by
  Eric Jon Sundstrom, Paul Horn, Yuezhi Mao, Dmitri Zuev, Alec White,
  David Stuck, Shaama M.S., Shane Yost, Joonho Lee, David Small,
  Daniel Levine, Susi Lehtola, Hugh Burton, Evgeny Epifanovsky,
  Bang C. Huynh
 -----------------------------------------------------------------------
 Exchange:     0.2000 Hartree-Fock + 0.0800 Slater + 0.7200 B88
 Correlation:  0.1900 VWN1RPA + 0.8100 LYP
 Using SG-1 standard quadrature grid
 A restricted SCF calculation will be
 performed using DIIS
 SCF converges when DIIS error is below 1.0e-05
 ---------------------------------------
  Cycle       Energy         DIIS error
 ---------------------------------------
    1    -594.6580109575      5.64e-02  
    2    -591.3924088278      6.75e-03  
    3    -591.0605436882      1.11e-02  
    4    -591.5894037151      2.75e-03  
    5    -591.6253138914      6.37e-04  
    6    -591.6267202683      2.90e-04  
    7    -591.6271233542      5.61e-05  
    8    -591.6271350364      3.04e-05  
    9    -591.6271403582      6.16e-06  Convergence criterion met
 ---------------------------------------
 SCF time:   CPU 33.64s  wall 34.00s 
 SCF   energy in the final basis set =     -591.6271403582
 Total energy in the final basis set =     -591.6271403582
 
 --------------------------------------------------------------
 
                    Orbital Energies (a.u.)
 --------------------------------------------------------------
 
 Alpha MOs
 -- Occupied --
-19.2022 -19.1423 -14.3401 -10.3294 -10.2326 -10.2316 -10.2300 -10.2245
-10.2219 -10.2105 -10.2025 -10.1997 -10.1928  -1.1119  -1.0310  -0.9641
 -0.8524  -0.8276  -0.7687  -0.7510  -0.6877  -0.6563  -0.6301  -0.6012
 -0.5770  -0.5548  -0.5209  -0.4990  -0.4719  -0.4697  -0.4548  -0.4483
 -0.4437  -0.4322  -0.4136  -0.4052  -0.3910  -0.3860  -0.3566  -0.3379
 -0.3223  -0.3158  -0.2851  -0.2643  -0.2604  -0.2432
 -- Virtual --
 -0.0575  -0.0491   0.0017   0.0230   0.0393   0.0675   0.1040   0.1108
  0.1355   0.1430   0.1470   0.1543   0.1727   0.1765   0.1972   0.2245
  0.2478   0.2917   0.2986   0.3103   0.3229   0.3446   0.3612   0.3693
  0.3815   0.4033   0.4502   0.4583   0.4927   0.5093   0.5124   0.5314
  0.5418   0.5455   0.5504   0.5671   0.5829   0.5993   0.6026   0.6225
  0.6248   0.6300   0.6453   0.6607   0.6709   0.6786   0.6917   0.7150
  0.7223   0.7583   0.7780   0.8036   0.8138   0.8186   0.8326   0.8473
  0.8537   0.8594   0.8632   0.8681   0.8709   0.8777   0.9227   0.9311
  0.9514   0.9674   0.9790   0.9869   1.0071   1.0532   1.0610   1.0700
  1.0811   1.1004   1.1129   1.1418   1.1603   1.1665   1.1697   1.2037
  1.2170   1.2504   1.2852   1.3083   1.3449   1.3752   1.4148   1.4501
  1.4688   1.4861   1.4984   1.5040   1.5064   1.5327   1.5708   1.6127
  1.6475   1.6524   1.7055   1.7246   1.7430   1.7691   1.7904   1.8083
  1.8124   1.8350   1.8421   1.8595   1.8984   1.9135   1.9355   1.9552
  1.9763   1.9858   1.9982   2.0211   2.0817   2.1098   2.1239   2.1481
  2.1795   2.1942   2.2060   2.2490   2.2661   2.2904   2.3074   2.3393
  2.3504   2.3792   2.3981   2.4168   2.4457   2.4959   2.5284   2.5569
  2.5906   2.6039   2.6361   2.6619   2.6664   2.7204   2.7304   2.7802
  2.8227   2.8641   2.8969   2.9025   2.9541   2.9924   3.0137   3.0947
  3.2249   3.4415   3.9250   4.0878   4.0890   4.1215   4.1304   4.1803
  4.2130   4.2469   4.2857   4.3160   4.4200   4.4730   4.7707
 --------------------------------------------------------------
 
          Ground-State Mulliken Net Atomic Charges

     Atom                 Charge (a.u.)
  ----------------------------------------
      1 C                    -0.332405
      2 C                    -0.171550
      3 C                     0.103120
      4 C                    -0.009001
      5 N                    -0.395980
      6 C                    -0.009108
      7 C                     0.107070
      8 C                    -0.124092
      9 C                    -0.328018
     10 C                    -0.032516
     11 C                     0.510787
     12 O                    -0.422582
     13 O                    -0.559432
     14 H                     0.156819
     15 H                     0.187332
     16 H                     0.145568
     17 H                     0.147591
     18 H                     0.149234
     19 H                     0.146634
     20 H                     0.157509
     21 H                     0.155752
     22 H                     0.417269
  ----------------------------------------
  Sum of atomic charges =     0.000000

 -----------------------------------------------------------------
                    Cartesian Multipole Moments
 -----------------------------------------------------------------
    Charge (ESU x 10^10)
                 0.0000
    Dipole Moment (Debye)
         X       0.8690      Y       0.9289      Z      -2.1631
       Tot       2.5094
    Quadrupole Moments (Debye-Ang)
        XX     -61.7891     XY      -0.5716     YY     -87.6969
        XZ      -1.8237     YZ       3.4070     ZZ     -73.8830
    Octopole Moments (Debye-Ang^2)
       XXX       0.7828    XXY      -5.3176    XYY       2.1062
       YYY     -18.6233    XXZ       0.8599    XYZ      -8.5648
       YYZ      -4.3291    XZZ       4.6737    YZZ      -5.3427
       ZZZ     -10.3398
    Hexadecapole Moments (Debye-Ang^3)
      XXXX   -1293.3847   XXXY      -2.3149   XXYY    -386.1698
      XYYY       7.9823   YYYY   -1332.9379   XXXZ     -28.1879
      XXYZ      -0.2793   XYYZ       3.8451   YYYZ       7.5842
      XXZZ    -276.0909   XYZZ      -7.9070   YYZZ    -234.2680
      XZZZ     -12.4081   YZZZ      14.3050   ZZZZ    -173.7891
 -----------------------------------------------------------------
Archival summary:
1\1\nia2015.scinet.local\SP\ProcedureUnspecified\6-31G*\21109\rhickman\TueFeb816:53:332022TueFeb816:53:332022\0\\#,ProcedureUnspecified,6-31G*,\\0,1\C\C,1,1.40078\C,2,1.39808,1,117.229\H,3,1.08197,2,120.25,1,-179.239,0\N,3,1.31761,2,123.978,1,2.24001,0\C,5,1.31741,3,118.363,2,-1.32218,0\H,6,1.08215,5,115.775,3,-179.604,0\C,6,1.398,5,123.986,3,-1.03175,0\C,2,1.46083,1,123.612,3,178.205,0\H,9,1.08236,2,114.529,1,145.499,0\C,9,1.32485,2,125.482,1,-38.1671,0\H,11,1.07604,9,121.247,2,-178.499,0\H,11,1.07699,9,122.89,2,1.02371,0\C,8,1.46272,6,118.694,5,-175.987,0\H,14,1.08344,8,114.509,6,-32.4847,0\C,14,1.32619,8,125.407,6,143.3,0\H,16,1.07648,14,121.221,8,-177.79,0\H,16,1.0767,14,122.604,8,0.881994,0\C,1,1.49935,2,119.916,3,177.919,0\O,19,1.19642,1,124.046,2,-61.7331,0\O,19,1.35094,1,114.775,2,117.792,0\H,21,0.966227,19,112.53,1,4.28818,0\\\@

 Total job time:  34.07s(wall), 33.81s(cpu) 
 Tue Feb  8 16:53:33 2022

        *************************************************************
        *                                                           *
        *  Thank you very much for using Q-Chem.  Have a nice day.  *
        *                                                           *
        *************************************************************


