
Running Job 1 of 1 fragments/A022/conf-1/spe_input.inp
qchem fragments/A022/conf-1/spe_input.inp_126306.0 /gpfs/fs0/scratch/a/aspuru/rhickman/descriptor_computation/qchem126306/ 0
/scinet/niagara/software/commercial/qc52/exe/qcprog.exe_s fragments/A022/conf-1/spe_input.inp_126306.0 /gpfs/fs0/scratch/a/aspuru/rhickman/descriptor_computation/qchem126306/
                  Welcome to Q-Chem
     A Quantum Leap Into The Future Of Chemistry


 Q-Chem 5.2, Q-Chem, Inc., Pleasanton, CA (2019)

 License issued to: SRG Alan Aspuru-Guzik, University of Toronto

 Yihan Shao,  Zhengting Gan,  E. Epifanovsky,  A. T. B. Gilbert,  M. Wormit,  
 J. Kussmann,  A. W. Lange,  A. Behn,  Jia Deng,  Xintian Feng,  D. Ghosh,  
 M. Goldey,  P. R. Horn,  L. D. Jacobson,  I. Kaliman,  T. Kus,  A. Landau,  
 Jie Liu,  E. I. Proynov,  R. M. Richard,  R. P. Steele,  E. J. Sundstrom,  
 H. L. Woodcock III,  P. M. Zimmerman,  D. Zuev,  B. Albrecht,  E. Alguire,  
 S. A. Baeppler,  D. Barton,  Z. Benda,  Y. A. Bernard,  E. J. Berquist,  
 K. B. Bravaya,  H. Burton,  D. Casanova,  Chun-Min Chang,  Yunqing Chen,  
 A. Chien,  K. D. Closser,  M. P. Coons,  S. Coriani,  S. Dasgupta,  
 A. L. Dempwolff,  M. Diedenhofen,  Hainam Do,  R. G. Edgar,  Po-Tung Fang,  
 S. Faraji,  S. Fatehi,  Qingguo Feng,  K. D. Fenk,  J. Fosso-Tande,  
 J. Gayvert,  Qinghui Ge,  A. Ghysels,  G. Gidofalvi,  J. Gomes,  
 J. Gonthier,  A. Gunina,  D. Hait,  M. W. D. Hanson-Heine,  
 P. H. P. Harbach,  A. W. Hauser,  M. F. Herbst,  J. E. Herr,  
 E. G. Hohenstein,  Z. C. Holden,  Kerwin Hui,  B. C. Huynh,  T.-C. Jagau,  
 Hyunjun Ji,  B. Kaduk,  K. Khistyaev,  Jaehoon Kim,  P. Klunzinger,  K. Koh,  
 D. Kosenkov,  L. Koulias,  T. Kowalczyk,  C. M. Krauter,  A. Kunitsa,  
 Ka Un Lao,  A. Laurent,  K. V. Lawler,  Joonho Lee,  D. Lefrancois,  
 S. Lehtola,  D. S. Levine,  Yi-Pei Li,  You-Sheng Lin,  Fenglai Liu,  
 E. Livshits,  A. Luenser,  P. Manohar,  E. Mansoor,  S. F. Manzer,  
 Shan-Ping Mao,  Yuezhi Mao,  N. Mardirossian,  A. V. Marenich,  
 T. Markovich,  L. A. Martinez-Martinez,  S. A. Maurer,  N. J. Mayhall,  
 S. C. McKenzie,  J.-M. Mewes,  P. Morgante,  A. F. Morrison,  
 J. W. Mullinax,  K. Nanda,  T. S. Nguyen-Beck,  R. Olivares-Amaya,  
 J. A. Parkhill,  Zheng Pei,  T. M. Perrine,  F. Plasser,  P. Pokhilko,  
 S. Prager,  A. Prociuk,  E. Ramos,  D. R. Rehn,  F. Rob,  M. Scheurer,  
 M. Schneider,  N. Sergueev,  S. M. Sharada,  S. Sharma,  D. W. Small,  
 T. Stauch,  T. Stein,  Yu-Chuan Su,  A. J. W. Thom,  A. Tkatchenko,  
 T. Tsuchimochi,  N. M. Tubman,  L. Vogt,  M. L. Vidal,  O. Vydrov,  
 M. A. Watson,  J. Wenzel,  M. de Wergifosse,  T. A. Wesolowski,  A. White,  
 J. Witte,  A. Yamada,  Jun Yang,  K. Yao,  S. Yeganeh,  S. R. Yost,  
 Zhi-Qiang You,  A. Zech,  Igor Ying Zhang,  Xing Zhang,  Yan Zhao,  
 Ying Zhu,  B. R. Brooks,  G. K. L. Chan,  C. J. Cramer,  M. S. Gordon,  
 W. J. Hehre,  A. Klamt,  M. W. Schmidt,  C. D. Sherrill,  D. G. Truhlar,  
 A. Aspuru-Guzik,  R. Baer,  A. T. Bell,  N. A. Besley,  Jeng-Da Chai,  
 A. E. DePrince, III,  R. A. DiStasio Jr.,  A. Dreuw,  B. D. Dunietz,  
 T. R. Furlani,  Chao-Ping Hsu,  Yousung Jung,  Jing Kong,  D. S. Lambrecht,  
 WanZhen Liang,  C. Ochsenfeld,  V. A. Rassolov,  L. V. Slipchenko,  
 J. E. Subotnik,  T. Van Voorhis,  J. M. Herbert,  A. I. Krylov,  
 P. M. W. Gill,  M. Head-Gordon

 Contributors to earlier versions of Q-Chem not listed above: 
 R. D. Adamson,  B. Austin,  J. Baker,  G. J. O. Beran,  K. Brandhorst,  
 S. T. Brown,  E. F. C. Byrd,  A. K. Chakraborty,  C.-L. Cheng,  
 Siu Hung Chien,  D. M. Chipman,  D. L. Crittenden,  H. Dachsel,  
 R. J. Doerksen,  A. D. Dutoi,  L. Fusti-Molnar,  W. A. Goddard III,  
 A. Golubeva-Zadorozhnaya,  S. R. Gwaltney,  G. Hawkins,  A. Heyden,  
 S. Hirata,  G. Kedziora,  F. J. Keil,  C. Kelley,  Jihan Kim,  R. A. King,  
 R. Z. Khaliullin,  P. P. Korambath,  W. Kurlancheek,  A. M. Lee,  M. S. Lee,  
 S. V. Levchenko,  Ching Yeh Lin,  D. Liotard,  R. C. Lochan,  I. Lotan,  
 P. E. Maslen,  N. Nair,  D. P. O'Neill,  D. Neuhauser,  E. Neuscamman,  
 C. M. Oana,  R. Olson,  B. Peters,  R. Peverati,  P. A. Pieniazek,  
 Y. M. Rhee,  J. Ritchie,  M. A. Rohrdanz,  E. Rosta,  N. J. Russ,  
 H. F. Schaefer III,  N. E. Schultz,  N. Shenvi,  A. C. Simmonett,  A. Sodt,  
 D. Stuck,  K. S. Thanthiriwatte,  V. Vanovschi,  Tao Wang,  A. Warshel,  
 C. F. Williams,  Q. Wu,  X. Xu,  W. Zhang

 Please cite Q-Chem as follows:
 Y. Shao et al., Mol. Phys. 113, 184-215 (2015)
 DOI: 10.1080/00268976.2014.952696

 Q-Chem 5.2.1 for Intel X86 EM64T Linux

 Parts of Q-Chem use Armadillo 8.300.2 (Tropical Shenanigans).
 http://arma.sourceforge.net/

 Q-Chem begins on Mon Feb  7 16:14:48 2022  

Host: 
0

     Scratch files written to /gpfs/fs0/scratch/a/aspuru/rhickman/descriptor_computation/qchem126306//
 Jul1719 |scratch|qcdevops|jenkins|workspace|build_RNUM -1
Processing $rem in /scinet/niagara/software/commercial/qc52/config/preferences:
	 MEM_TOTAL  4000 
NAlpha2: 206
NElect   206
Mult     1

Checking the input file for inconsistencies... 	...done.

--------------------------------------------------------------
User input:
--------------------------------------------------------------
$molecule
0 1
F         1.93529283290000    3.78227402550000   -0.40218414190000
C         2.98570605130000    2.95828770810000   -0.57665833450000
F         3.16724612600000    2.87154260840000   -1.90861674570000
F         4.05542878180000    3.59742384500000   -0.08931127920000
C         2.75546984750000    1.61337246430000    0.04951676860000
C         1.65241719590000    0.88476026060000   -0.37465787700000
C         1.38047151090000   -0.35509781890000    0.19164934490000
N         0.26027514130000   -1.10775119980000   -0.19250360780000
C         0.55666582440000   -2.44148245070000   -0.54717247480000
C         1.34748267960000   -3.21909794830000    0.29471684400000
S         2.00822323960000   -2.49799240660000    1.77755967460000
C         1.64949670550000   -4.53260953450000   -0.02673469920000
C         1.17140402140000   -5.07630792170000   -1.20478743030000
C         0.42908948810000   -4.29470312870000   -2.07587708450000
C         0.13451702530000   -2.98140236170000   -1.75813947280000
C        -1.03826107970000   -0.61746603140000   -0.13636815540000
C        -1.30661971830000    0.68530402550000    0.29646682810000
C        -2.59678858360000    1.16270081180000    0.36669809550000
C        -3.68504679230000    0.35874229280000    0.02200481180000
C        -5.06542231520000    0.80278445280000    0.05581992190000
C        -5.54036611440000    1.99818932750000    0.37598299040000
F        -4.86019865580000    3.07831903830000    0.74501016660000
F        -6.84173885690000    2.28994299280000    0.36876741970000
C        -3.41691107660000   -0.95909787810000   -0.35477880460000
C        -2.13007768240000   -1.44220212280000   -0.42677256060000
C         2.28167030630000   -0.87959786440000    1.12381448060000
C         3.38457458320000   -0.14722113830000    1.53622384600000
C         3.61697869420000    1.11186723800000    1.01598677770000
H         1.00310112050000    1.28206037110000   -1.13993495550000
H         2.25188441090000   -5.11621560980000    0.65168042670000
H         1.39456182030000   -6.10263035830000   -1.45072969230000
H         0.08198690010000   -4.70632412730000   -3.01102353080000
H        -0.42739972190000   -2.36406021890000   -2.44246131640000
H        -0.50259790030000    1.33304435170000    0.60715755480000
H        -2.75069467130000    2.17499875950000    0.70165558180000
H        -5.81315819700000    0.07172051890000   -0.21646142260000
H        -4.23715930640000   -1.62119285560000   -0.59049709420000
H        -1.97576409890000   -2.47690115230000   -0.68804921730000
H         4.05044093710000   -0.56803883330000    2.27271096270000
H         4.46471796800000    1.69153823140000    1.34380759820000
$end

$rem
BASIS = 6-31G*
GUI = 2
METHOD = B3LYP
PRINT_ORBITALS false
MOLDEN_FORMAT false
--------------------------------------------------------------
 ----------------------------------------------------------------
             Standard Nuclear Orientation (Angstroms)
    I     Atom           X                Y                Z
 ----------------------------------------------------------------
    1      F      -0.7954538130    -4.2251526116    -0.5547916902
    2      C      -2.0354633663    -3.7186974144    -0.6913276398
    3      F      -2.2529027897    -3.6321992012    -2.0179145674
    4      F      -2.8790831800    -4.6486618253    -0.2289634130
    5      C      -2.1780883313    -2.3890514407    -0.0089782525
    6      C      -1.3263455519    -1.3664941655    -0.4044980148
    7      C      -1.4006361553    -0.1237061842     0.2134545094
    8      N      -0.5385155303     0.9250743431    -0.1410986501
    9      C      -1.1979652473     2.1373222535    -0.4378436015
   10      C      -2.1612340385     2.6303975801     0.4384239056
   11      S      -2.5750263770     1.6951782765     1.8908477091
   12      C      -2.8200087659     3.8203395128     0.1740183292
   13      C      -2.5281763090     4.5223154221    -0.9809935443
   14      C      -1.6108153474     4.0131264945    -1.8864821454
   15      C      -0.9593012584     2.8214713328    -1.6257593084
   16      C       0.8456982693     0.8125510930    -0.1091968012
   17      C       1.4707504499    -0.3809030379     0.2670335963
   18      C       2.8435544837    -0.4839443328     0.3135889366
   19      C       3.6613347366     0.6036317036     0.0007271270
   20      C       5.1110387463     0.5591054949     0.0120931637
   21      C       5.9031989212    -0.4694272375     0.2798084843
   22      F       5.5543678799    -1.7098264847     0.6041780771
   23      F       7.2342114921    -0.3880469350     0.2568724150
   24      C       3.0331191052     1.8093571204    -0.3188612199
   25      C       1.6619125735     1.9188734463    -0.3669425930
   26      C      -2.3985129833     0.0921433154     1.1694054686
   27      C      -3.2492376032    -0.9335127203     1.5530098418
   28      C      -3.1309721148    -2.1856408076     0.9801657576
   29      H      -0.6033320418    -1.5368631504    -1.1876542084
   30      H      -3.5508104133     4.1860590616     0.8782144990
   31      H      -3.0305210200     5.4554339021    -1.1823996934
   32      H      -1.4047594909     4.5421963407    -2.8041078921
   33      H      -0.2581151204     2.4123760139    -2.3371924800
   34      H       0.8822611978    -1.2382824238     0.5518639500
   35      H       3.2767497645    -1.4264016220     0.6047020470
   36      H       5.6229072947     1.4792999174    -0.2306687956
   37      H       3.6342878218     2.6820005162    -0.5282166774
   38      H       1.2231677300     2.8797543380    -0.5834861896
   39      H      -3.9950796626    -0.7440036605     2.3084466330
   40      H      -3.7800828973    -2.9905031128     1.2851226217
 ----------------------------------------------------------------
 Molecular Point Group                 C1    NOp =  1
 Largest Abelian Subgroup              C1    NOp =  1
 Nuclear Repulsion Energy =        2670.97645779 hartrees
 There are      103 alpha and      103 beta electrons
 Requested basis set is 6-31G(d)
 There are 137 shells and 448 basis functions

 Total QAlloc Memory Limit   4000 MB
 Mega-Array Size       188 MB
 MEM_STATIC part       192 MB
 A cutoff of  1.0D-08 yielded   4115 shell pairs
 There are     46577 function pairs
 Smallest overlap matrix eigenvalue = 3.60E-04

 Scale SEOQF with 1.000000e-02/1.000000e-02/1.000000e-01

 Standard Electronic Orientation quadrupole field applied
 Nucleus-field energy     =    -0.0000000056 hartrees
 Guess from superposition of atomic densities
 Warning:  Energy on first SCF cycle will be non-variational
 SAD guess density has 206.000000 electrons

 -----------------------------------------------------------------------
  General SCF calculation program by
  Eric Jon Sundstrom, Paul Horn, Yuezhi Mao, Dmitri Zuev, Alec White,
  David Stuck, Shaama M.S., Shane Yost, Joonho Lee, David Small,
  Daniel Levine, Susi Lehtola, Hugh Burton, Evgeny Epifanovsky,
  Bang C. Huynh
 -----------------------------------------------------------------------
 Exchange:     0.2000 Hartree-Fock + 0.0800 Slater + 0.7200 B88
 Correlation:  0.1900 VWN1RPA + 0.8100 LYP
 Using SG-1 standard quadrature grid
 A restricted SCF calculation will be
 performed using DIIS
 SCF converges when DIIS error is below 1.0e-05
 ---------------------------------------
  Cycle       Energy         DIIS error
 ---------------------------------------
    1   -1766.6210561448      3.82e-02  
    2   -1759.1817003436      4.10e-03  
    3   -1758.8200754213      5.74e-03  
    4   -1759.5507484625      1.08e-03  
    5   -1759.5747282351      5.26e-04  
    6   -1759.5813962022      1.94e-04  
    7   -1759.5823040860      5.85e-05  
    8   -1759.5823859426      1.88e-05  
    9   -1759.5823949091      5.02e-06  Convergence criterion met
 ---------------------------------------
 SCF time:   CPU 153.90s  wall 155.00s 
 SCF   energy in the final basis set =    -1759.5823949091
 Total energy in the final basis set =    -1759.5823949091
 
 --------------------------------------------------------------
 
                    Orbital Energies (a.u.)
 --------------------------------------------------------------
 
 Alpha MOs
 -- Occupied --
-88.9057 -24.7385 -24.7280 -24.7277 -24.7202 -24.7192 -14.3834 -10.4319
-10.3486 -10.2524 -10.2455 -10.2412 -10.2395 -10.2346 -10.2221 -10.2154
-10.2140 -10.2133 -10.2074 -10.2050 -10.2033 -10.2027 -10.1979 -10.1969
-10.1907 -10.1879 -10.1862 -10.1861  -7.9667  -5.9315  -5.9281  -5.9218
 -1.3072  -1.2787  -1.2181  -1.2181  -1.2111  -0.9990  -0.8922  -0.8833
 -0.8606  -0.8312  -0.8033  -0.7850  -0.7838  -0.7617  -0.7510  -0.7371
 -0.7196  -0.6831  -0.6596  -0.6507  -0.6299  -0.6248  -0.6165  -0.6061
 -0.5953  -0.5806  -0.5803  -0.5717  -0.5637  -0.5503  -0.5342  -0.5152
 -0.5126  -0.5017  -0.5003  -0.4888  -0.4716  -0.4654  -0.4611  -0.4583
 -0.4552  -0.4544  -0.4520  -0.4453  -0.4351  -0.4282  -0.4270  -0.4225
 -0.4175  -0.4164  -0.4128  -0.4070  -0.3958  -0.3956  -0.3921  -0.3865
 -0.3831  -0.3783  -0.3702  -0.3620  -0.3520  -0.3425  -0.3391  -0.3132
 -0.2927  -0.2758  -0.2675  -0.2559  -0.2520  -0.2280  -0.1899
 -- Virtual --
 -0.0372  -0.0338  -0.0223  -0.0182  -0.0069   0.0017   0.0194   0.0656
  0.0744   0.0902   0.1037   0.1146   0.1183   0.1237   0.1310   0.1367
  0.1424   0.1449   0.1508   0.1629   0.1670   0.1724   0.1803   0.1825
  0.1910   0.1943   0.2010   0.2090   0.2202   0.2230   0.2351   0.2352
  0.2559   0.2621   0.2741   0.2799   0.2883   0.3020   0.3050   0.3213
  0.3221   0.3385   0.3423   0.3500   0.3653   0.3685   0.3786   0.3836
  0.4177   0.4196   0.4278   0.4390   0.4771   0.4786   0.4872   0.4897
  0.5002   0.5014   0.5102   0.5128   0.5240   0.5298   0.5413   0.5426
  0.5479   0.5534   0.5595   0.5622   0.5685   0.5706   0.5747   0.5796
  0.5819   0.5876   0.5900   0.5915   0.5947   0.5972   0.6002   0.6031
  0.6151   0.6158   0.6182   0.6274   0.6342   0.6372   0.6442   0.6535
  0.6594   0.6668   0.6764   0.6935   0.7002   0.7083   0.7224   0.7343
  0.7592   0.7765   0.7808   0.7931   0.8023   0.8118   0.8177   0.8210
  0.8256   0.8264   0.8364   0.8385   0.8429   0.8533   0.8560   0.8710
  0.8785   0.8872   0.8899   0.8982   0.9023   0.9137   0.9239   0.9273
  0.9427   0.9523   0.9571   0.9623   0.9741   0.9869   0.9965   1.0048
  1.0063   1.0208   1.0444   1.0472   1.0686   1.0760   1.0787   1.0895
  1.0953   1.1034   1.1105   1.1152   1.1266   1.1411   1.1473   1.1537
  1.1647   1.1685   1.1773   1.1872   1.1965   1.2095   1.2219   1.2248
  1.2354   1.2434   1.2519   1.2698   1.2804   1.2894   1.3108   1.3226
  1.3304   1.3395   1.3457   1.3541   1.3637   1.3700   1.3747   1.3828
  1.3864   1.3957   1.4086   1.4126   1.4257   1.4297   1.4358   1.4460
  1.4524   1.4621   1.4661   1.4687   1.4740   1.4788   1.4949   1.4957
  1.5186   1.5239   1.5381   1.5487   1.5586   1.5937   1.6100   1.6213
  1.6255   1.6560   1.6704   1.6756   1.7120   1.7335   1.7345   1.7483
  1.7576   1.7820   1.7829   1.7879   1.7913   1.8015   1.8091   1.8163
  1.8319   1.8380   1.8420   1.8551   1.8613   1.8625   1.8705   1.8770
  1.8841   1.8872   1.9111   1.9181   1.9300   1.9359   1.9473   1.9480
  1.9701   1.9749   1.9780   1.9829   1.9909   1.9993   2.0183   2.0241
  2.0368   2.0403   2.0476   2.0495   2.0691   2.0763   2.0806   2.0938
  2.0953   2.1013   2.1051   2.1216   2.1402   2.1440   2.1493   2.1498
  2.1669   2.1697   2.1764   2.2040   2.2103   2.2139   2.2338   2.2438
  2.2600   2.2611   2.2850   2.2890   2.3004   2.3122   2.3143   2.3265
  2.3377   2.3607   2.3675   2.4161   2.4268   2.4357   2.4616   2.4799
  2.4997   2.5164   2.5287   2.5667   2.5712   2.5968   2.6157   2.6280
  2.6349   2.6425   2.6489   2.6639   2.6789   2.6911   2.6938   2.7106
  2.7237   2.7363   2.7417   2.7536   2.7613   2.7778   2.7946   2.8080
  2.8197   2.8391   2.8574   2.8943   2.9121   2.9281   2.9475   2.9635
  2.9887   3.0276   3.0429   3.0590   3.0948   3.1240   3.1544   3.1978
  3.2417   3.3306   3.3860   3.4497   3.4879   3.9585   4.0817   4.0848
  4.0912   4.1085   4.1137   4.1281   4.1297   4.1607   4.1699   4.1997
  4.2672   4.2834   4.3112   4.3415   4.3487   4.3631   4.3809   4.3987
  4.4741   4.5216   4.6927   4.7446   4.7614   4.8233   4.8400   5.2898
  5.6510
 --------------------------------------------------------------
 
          Ground-State Mulliken Net Atomic Charges

     Atom                 Charge (a.u.)
  ----------------------------------------
      1 F                    -0.266366
      2 C                     0.780473
      3 F                    -0.266233
      4 F                    -0.265402
      5 C                    -0.020767
      6 C                    -0.184714
      7 C                     0.269866
      8 N                    -0.693407
      9 C                     0.262847
     10 C                    -0.104776
     11 S                     0.185214
     12 C                    -0.175867
     13 C                    -0.110760
     14 C                    -0.145820
     15 C                    -0.142987
     16 C                     0.358644
     17 C                    -0.197783
     18 C                    -0.206043
     19 C                     0.200250
     20 C                    -0.299365
     21 C                     0.536452
     22 F                    -0.237962
     23 F                    -0.252272
     24 C                    -0.206435
     25 C                    -0.196422
     26 C                    -0.091771
     27 C                    -0.182084
     28 C                    -0.146958
     29 H                     0.174635
     30 H                     0.149987
     31 H                     0.138137
     32 H                     0.139800
     33 H                     0.155451
     34 H                     0.152251
     35 H                     0.141652
     36 H                     0.155709
     37 H                     0.128110
     38 H                     0.150566
     39 H                     0.155877
     40 H                     0.158273
  ----------------------------------------
  Sum of atomic charges =     0.000000

 -----------------------------------------------------------------
                    Cartesian Multipole Moments
 -----------------------------------------------------------------
    Charge (ESU x 10^10)
                 0.0000
    Dipole Moment (Debye)
         X      -1.9768      Y       3.3336      Z      -0.3676
       Tot       3.8931
    Quadrupole Moments (Debye-Ang)
        XX    -163.7048     XY      -0.6595     YY    -156.3922
        XZ      -6.3528     YZ      -9.8008     ZZ    -160.3306
    Octopole Moments (Debye-Ang^2)
       XXX     -32.6249    XXY       2.2392    XYY       4.2149
       YYY      -4.9035    XXZ      10.7721    XYZ      12.7535
       YYZ     -12.6291    XZZ      10.1673    YZZ     -28.2786
       ZZZ     -19.2391
    Hexadecapole Moments (Debye-Ang^3)
      XXXX   -9422.8897   XXXY     248.9460   XXYY   -2314.4167
      XYYY    -156.0845   YYYY   -5675.3112   XXXZ     -66.7673
      XXYZ     -22.9399   XYYZ      -3.9028   YYYZ     -70.7890
      XXZZ   -1657.6025   XYZZ      15.6400   YYZZ   -1104.8930
      XZZZ      64.2967   YZZZ      20.1114   ZZZZ   -1078.8740
 -----------------------------------------------------------------
Archival summary:
1\1\nia1977.scinet.local\SP\ProcedureUnspecified\6-31G*\1512112\rhickman\MonFeb716:17:232022MonFeb716:17:232022\0\\#,ProcedureUnspecified,6-31G*,\\0,1\S\C,1,1.76674\C,2,1.38667,1,119.793\H,3,1.07837,2,119.218,1,-1.51714,0\C,3,1.38201,2,120.197,1,179.076,0\H,5,1.07803,3,120.508,2,179.091,0\C,5,1.38844,3,119.128,2,-1.88801,0\C,7,1.38835,5,121.07,3,1.5733,0\H,8,1.0794,7,120.091,5,-178.886,0\C,8,1.38993,7,119.941,5,1.42363,0\N,10,1.40318,8,121.542,7,178.708,0\C,11,1.38915,10,123.085,8,-55.8317,0\C,12,1.39878,11,121.37,10,0.935195,0\H,13,1.07821,12,120.373,11,-0.689996,0\C,13,1.37745,12,121.216,11,-179.183,0\H,15,1.07733,13,118.38,12,-179.691,0\C,15,1.39623,13,121.191,12,0.695928,0\C,17,1.39663,15,117.405,13,2.00113,0\H,18,1.08016,17,119.437,15,177.609,0\C,18,1.37641,17,121.654,15,-1.99944,0\H,20,1.07828,18,118.899,17,177.81,0\C,11,1.41155,10,114.078,8,128.65,0\C,22,1.39146,11,121.439,10,-127.648,0\H,23,1.07942,22,119.193,11,0.321511,0\C,23,1.38293,22,120.253,11,-179.459,0\H,25,1.07908,23,119.528,22,178.996,0\C,25,1.38591,23,120.348,22,-1.38557,0\H,27,1.07871,25,120.27,23,179.57,0\C,27,1.38275,25,119.929,23,-1.6246,0\H,29,1.07876,27,121.074,25,-178.307,0\C,29,1.38559,27,119.672,25,1.98796,0\C,17,1.45043,15,124.038,13,-179.144,0\H,32,1.0806,17,116.458,15,-178.76,0\C,32,1.32554,17,128.515,15,1.41465,0\F,34,1.32872,32,128.081,17,-0.0690126,0\F,34,1.3337,32,123.065,17,179.924,0\C,7,1.5013,5,121.248,3,-178.204,0\F,37,1.33802,7,113.491,5,-1.39978,0\F,37,1.34639,7,111.997,5,-122.049,0\F,37,1.34707,7,112.048,5,119.207,0\\\@

 Total job time:  154.79s(wall), 154.40s(cpu) 
 Mon Feb  7 16:17:23 2022

        *************************************************************
        *                                                           *
        *  Thank you very much for using Q-Chem.  Have a nice day.  *
        *                                                           *
        *************************************************************


