
Running Job 1 of 1 fragments/A023/conf-1/spe_input.inp
qchem fragments/A023/conf-1/spe_input.inp_163349.0 /gpfs/fs0/scratch/a/aspuru/rhickman/descriptor_computation/qchem163349/ 0
/scinet/niagara/software/commercial/qc52/exe/qcprog.exe_s fragments/A023/conf-1/spe_input.inp_163349.0 /gpfs/fs0/scratch/a/aspuru/rhickman/descriptor_computation/qchem163349/
                  Welcome to Q-Chem
     A Quantum Leap Into The Future Of Chemistry


 Q-Chem 5.2, Q-Chem, Inc., Pleasanton, CA (2019)

 License issued to: SRG Alan Aspuru-Guzik, University of Toronto

 Yihan Shao,  Zhengting Gan,  E. Epifanovsky,  A. T. B. Gilbert,  M. Wormit,  
 J. Kussmann,  A. W. Lange,  A. Behn,  Jia Deng,  Xintian Feng,  D. Ghosh,  
 M. Goldey,  P. R. Horn,  L. D. Jacobson,  I. Kaliman,  T. Kus,  A. Landau,  
 Jie Liu,  E. I. Proynov,  R. M. Richard,  R. P. Steele,  E. J. Sundstrom,  
 H. L. Woodcock III,  P. M. Zimmerman,  D. Zuev,  B. Albrecht,  E. Alguire,  
 S. A. Baeppler,  D. Barton,  Z. Benda,  Y. A. Bernard,  E. J. Berquist,  
 K. B. Bravaya,  H. Burton,  D. Casanova,  Chun-Min Chang,  Yunqing Chen,  
 A. Chien,  K. D. Closser,  M. P. Coons,  S. Coriani,  S. Dasgupta,  
 A. L. Dempwolff,  M. Diedenhofen,  Hainam Do,  R. G. Edgar,  Po-Tung Fang,  
 S. Faraji,  S. Fatehi,  Qingguo Feng,  K. D. Fenk,  J. Fosso-Tande,  
 J. Gayvert,  Qinghui Ge,  A. Ghysels,  G. Gidofalvi,  J. Gomes,  
 J. Gonthier,  A. Gunina,  D. Hait,  M. W. D. Hanson-Heine,  
 P. H. P. Harbach,  A. W. Hauser,  M. F. Herbst,  J. E. Herr,  
 E. G. Hohenstein,  Z. C. Holden,  Kerwin Hui,  B. C. Huynh,  T.-C. Jagau,  
 Hyunjun Ji,  B. Kaduk,  K. Khistyaev,  Jaehoon Kim,  P. Klunzinger,  K. Koh,  
 D. Kosenkov,  L. Koulias,  T. Kowalczyk,  C. M. Krauter,  A. Kunitsa,  
 Ka Un Lao,  A. Laurent,  K. V. Lawler,  Joonho Lee,  D. Lefrancois,  
 S. Lehtola,  D. S. Levine,  Yi-Pei Li,  You-Sheng Lin,  Fenglai Liu,  
 E. Livshits,  A. Luenser,  P. Manohar,  E. Mansoor,  S. F. Manzer,  
 Shan-Ping Mao,  Yuezhi Mao,  N. Mardirossian,  A. V. Marenich,  
 T. Markovich,  L. A. Martinez-Martinez,  S. A. Maurer,  N. J. Mayhall,  
 S. C. McKenzie,  J.-M. Mewes,  P. Morgante,  A. F. Morrison,  
 J. W. Mullinax,  K. Nanda,  T. S. Nguyen-Beck,  R. Olivares-Amaya,  
 J. A. Parkhill,  Zheng Pei,  T. M. Perrine,  F. Plasser,  P. Pokhilko,  
 S. Prager,  A. Prociuk,  E. Ramos,  D. R. Rehn,  F. Rob,  M. Scheurer,  
 M. Schneider,  N. Sergueev,  S. M. Sharada,  S. Sharma,  D. W. Small,  
 T. Stauch,  T. Stein,  Yu-Chuan Su,  A. J. W. Thom,  A. Tkatchenko,  
 T. Tsuchimochi,  N. M. Tubman,  L. Vogt,  M. L. Vidal,  O. Vydrov,  
 M. A. Watson,  J. Wenzel,  M. de Wergifosse,  T. A. Wesolowski,  A. White,  
 J. Witte,  A. Yamada,  Jun Yang,  K. Yao,  S. Yeganeh,  S. R. Yost,  
 Zhi-Qiang You,  A. Zech,  Igor Ying Zhang,  Xing Zhang,  Yan Zhao,  
 Ying Zhu,  B. R. Brooks,  G. K. L. Chan,  C. J. Cramer,  M. S. Gordon,  
 W. J. Hehre,  A. Klamt,  M. W. Schmidt,  C. D. Sherrill,  D. G. Truhlar,  
 A. Aspuru-Guzik,  R. Baer,  A. T. Bell,  N. A. Besley,  Jeng-Da Chai,  
 A. E. DePrince, III,  R. A. DiStasio Jr.,  A. Dreuw,  B. D. Dunietz,  
 T. R. Furlani,  Chao-Ping Hsu,  Yousung Jung,  Jing Kong,  D. S. Lambrecht,  
 WanZhen Liang,  C. Ochsenfeld,  V. A. Rassolov,  L. V. Slipchenko,  
 J. E. Subotnik,  T. Van Voorhis,  J. M. Herbert,  A. I. Krylov,  
 P. M. W. Gill,  M. Head-Gordon

 Contributors to earlier versions of Q-Chem not listed above: 
 R. D. Adamson,  B. Austin,  J. Baker,  G. J. O. Beran,  K. Brandhorst,  
 S. T. Brown,  E. F. C. Byrd,  A. K. Chakraborty,  C.-L. Cheng,  
 Siu Hung Chien,  D. M. Chipman,  D. L. Crittenden,  H. Dachsel,  
 R. J. Doerksen,  A. D. Dutoi,  L. Fusti-Molnar,  W. A. Goddard III,  
 A. Golubeva-Zadorozhnaya,  S. R. Gwaltney,  G. Hawkins,  A. Heyden,  
 S. Hirata,  G. Kedziora,  F. J. Keil,  C. Kelley,  Jihan Kim,  R. A. King,  
 R. Z. Khaliullin,  P. P. Korambath,  W. Kurlancheek,  A. M. Lee,  M. S. Lee,  
 S. V. Levchenko,  Ching Yeh Lin,  D. Liotard,  R. C. Lochan,  I. Lotan,  
 P. E. Maslen,  N. Nair,  D. P. O'Neill,  D. Neuhauser,  E. Neuscamman,  
 C. M. Oana,  R. Olson,  B. Peters,  R. Peverati,  P. A. Pieniazek,  
 Y. M. Rhee,  J. Ritchie,  M. A. Rohrdanz,  E. Rosta,  N. J. Russ,  
 H. F. Schaefer III,  N. E. Schultz,  N. Shenvi,  A. C. Simmonett,  A. Sodt,  
 D. Stuck,  K. S. Thanthiriwatte,  V. Vanovschi,  Tao Wang,  A. Warshel,  
 C. F. Williams,  Q. Wu,  X. Xu,  W. Zhang

 Please cite Q-Chem as follows:
 Y. Shao et al., Mol. Phys. 113, 184-215 (2015)
 DOI: 10.1080/00268976.2014.952696

 Q-Chem 5.2.1 for Intel X86 EM64T Linux

 Parts of Q-Chem use Armadillo 8.300.2 (Tropical Shenanigans).
 http://arma.sourceforge.net/

 Q-Chem begins on Mon Feb  7 18:16:41 2022  

Host: 
0

     Scratch files written to /gpfs/fs0/scratch/a/aspuru/rhickman/descriptor_computation/qchem163349//
 Jul1719 |scratch|qcdevops|jenkins|workspace|build_RNUM -1
Processing $rem in /scinet/niagara/software/commercial/qc52/config/preferences:
	 MEM_TOTAL  4000 
NAlpha2: 190
NElect   190
Mult     1

Checking the input file for inconsistencies... 	...done.

--------------------------------------------------------------
User input:
--------------------------------------------------------------
$molecule
0 1
C         2.61815286060000   -5.46200261510000    1.22519659940000
O         1.85323123020000   -4.28818340620000    1.36173889810000
C         2.15729597640000   -3.21864774440000    0.57952727940000
C         1.36621257440000   -2.08736529580000    0.77940492780000
C         1.56010084310000   -0.94333859030000    0.02247057520000
N         0.76078625650000    0.20272655090000    0.20302911260000
C         1.49758376880000    1.38883027900000    0.40331257710000
C         2.54125286820000    1.70746697870000   -0.46388845160000
S         2.94104830040000    0.59145996160000   -1.78252038890000
C         3.27182825630000    2.87287630040000   -0.29395898190000
C         2.97460669830000    3.72277339330000    0.75525024680000
C         1.97362219170000    3.38881473040000    1.65374553710000
C         1.24771588430000    2.22346229910000    1.48802145530000
C        -0.61676503090000    0.19002397160000    0.07848294400000
C        -1.31046478010000   -0.99300113060000   -0.20255207110000
C        -2.67974212280000   -0.99217648030000   -0.33608026350000
C        -3.42923000140000    0.18017827000000   -0.21016365670000
C        -4.87059120300000    0.10026532420000   -0.34205142380000
C        -5.76613307650000    1.07125246950000   -0.23182680210000
F        -5.55455525730000    2.35890298020000    0.02849429160000
F        -7.07923843550000    0.87248669450000   -0.37350524470000
C        -2.73007790670000    1.36820940180000    0.01425751120000
C        -1.36006998070000    1.37477699650000    0.14770408700000
C         2.61535202180000   -0.90633039240000   -0.89026463730000
C         3.40917325370000   -2.02203731540000   -1.08239638000000
C         3.17509859270000   -3.18444504000000   -0.36934076300000
H         2.20459433160000   -6.16675341380000    1.94461265270000
H         3.67256424260000   -5.28376254990000    1.45859219880000
H         2.53333517720000   -5.88223010660000    0.21801725260000
H         0.59474358440000   -2.12282078840000    1.53195352030000
H         4.06280794330000    3.10400853750000   -0.99042248830000
H         3.53533045860000    4.63601415140000    0.88096134600000
H         1.75874808740000    4.03565677870000    2.49056031510000
H         0.47665637730000    1.95226333000000    2.19336499830000
H        -0.77249206910000   -1.91718697870000   -0.33925084020000
H        -3.18463758340000   -1.92354906170000   -0.54786281470000
H        -5.28115332710000   -0.87667276590000   -0.55424117580000
H        -3.25711015360000    2.30598258430000    0.07789438010000
H        -0.85814817370000    2.31939760300000    0.28466335010000
H         4.21015606970000   -1.98078415640000   -1.80392035900000
H         3.80000198070000   -4.04321186090000   -0.55133220020000
$end

$rem
BASIS = 6-31G*
GUI = 2
METHOD = B3LYP
PRINT_ORBITALS false
MOLDEN_FORMAT false
--------------------------------------------------------------
 ----------------------------------------------------------------
             Standard Nuclear Orientation (Angstroms)
    I     Atom           X                Y                Z
 ----------------------------------------------------------------
    1      C      -4.1160135576    -4.4083717215    -0.9956003280
    2      O      -3.0290648881    -3.5328507952    -1.1789200829
    3      C      -2.9760881303    -2.3964736868    -0.4345697293
    4      C      -1.8783902279    -1.5715501732    -0.6797727340
    5      C      -1.6980777061    -0.3991685011     0.0360121409
    6      N      -0.5876809814     0.4379076874    -0.1904675935
    7      C      -0.9264866095     1.7861375863    -0.4298688887
    8      C      -1.8069518737     2.4395478835     0.4307402338
    9      S      -2.5094549684     1.5453912363     1.7912811292
   10      C      -2.1457169819     3.7671867176     0.2223928383
   11      C      -1.6183500480     4.4488820486    -0.8586628130
   12      C      -0.7837188752     3.7930367335    -1.7497575811
   13      C      -0.4494463808     2.4667531619    -1.5455897219
   14      C       0.7208245754     0.0051014986    -0.0729403042
   15      C       1.0209016107    -1.3242453473     0.2472770443
   16      C       2.3258500243    -1.7413433121     0.3733318938
   17      C       3.3978400277    -0.8621041687     0.2007668509
   18      C       4.7464622760    -1.3782429950     0.3277366074
   19      C       5.8956167704    -0.7349662588     0.1774045101
   20      F       6.0867185753     0.5458422426    -0.1285133969
   21      F       7.0857882310    -1.3242190018     0.3191768541
   22      C       3.0950435156     0.4755516004    -0.0630281409
   23      C       1.7916784046     0.8999052570    -0.1892668078
   24      C      -2.6755623654    -0.0084231837     0.9524465700
   25      C      -3.7711936617    -0.8179505650     1.1893562030
   26      C      -3.9182239078    -2.0187523472     0.5178741373
   27      H      -3.9514496930    -5.2296497940    -1.6910748890
   28      H      -5.0679256619    -3.9214409336    -1.2296689990
   29      H      -4.1483108249    -4.8007960777     0.0257494807
   30      H      -1.1677550432    -1.8680140995    -1.4346619002
   31      H      -2.8155564102     4.2538436185     0.9142111620
   32      H      -1.8724947670     5.4858649707    -1.0145473190
   33      H      -0.3937578443     4.3140961682    -2.6107232882
   34      H       0.1889578629     1.9478558723    -2.2447154490
   35      H       0.2267296485    -2.0324303959     0.4204402750
   36      H       2.5227101146    -2.7755059192     0.6161898097
   37      H       4.8395603916    -2.4266179139     0.5731679639
   38      H       3.8841874215     1.2024390113    -0.1636152669
   39      H       1.6029502038     1.9482146296    -0.3578507806
   40      H      -4.5086247765    -0.5078965720     1.9131890700
   41      H      -4.7741976838    -2.6364403255     0.7343828820
 ----------------------------------------------------------------
 Molecular Point Group                 C1    NOp =  1
 Largest Abelian Subgroup              C1    NOp =  1
 Nuclear Repulsion Energy =        2325.91787763 hartrees
 There are       95 alpha and       95 beta electrons
 Requested basis set is 6-31G(d)
 There are 135 shells and 424 basis functions

 Total QAlloc Memory Limit   4000 MB
 Mega-Array Size       188 MB
 MEM_STATIC part       192 MB
 A cutoff of  1.0D-08 yielded   4066 shell pairs
 There are     43507 function pairs
 Smallest overlap matrix eigenvalue = 3.58E-04

 Scale SEOQF with 1.000000e-02/1.000000e-02/1.000000e-01

 Standard Electronic Orientation quadrupole field applied
 Nucleus-field energy     =    -0.0000000023 hartrees
 Guess from superposition of atomic densities
 Warning:  Energy on first SCF cycle will be non-variational
 SAD guess density has 190.000000 electrons

 -----------------------------------------------------------------------
  General SCF calculation program by
  Eric Jon Sundstrom, Paul Horn, Yuezhi Mao, Dmitri Zuev, Alec White,
  David Stuck, Shaama M.S., Shane Yost, Joonho Lee, David Small,
  Daniel Levine, Susi Lehtola, Hugh Burton, Evgeny Epifanovsky,
  Bang C. Huynh
 -----------------------------------------------------------------------
 Exchange:     0.2000 Hartree-Fock + 0.0800 Slater + 0.7200 B88
 Correlation:  0.1900 VWN1RPA + 0.8100 LYP
 Using SG-1 standard quadrature grid
 A restricted SCF calculation will be
 performed using DIIS
 SCF converges when DIIS error is below 1.0e-05
 ---------------------------------------
  Cycle       Energy         DIIS error
 ---------------------------------------
    1   -1543.7946605922      3.99e-02  
    2   -1536.7158099091      3.89e-03  
    3   -1536.4604465874      5.14e-03  
    4   -1537.0319459168      1.21e-03  
    5   -1537.0615461280      4.97e-04  
    6   -1537.0666410566      2.16e-04  
    7   -1537.0677116551      5.88e-05  
    8   -1537.0677852767      1.93e-05  
    9   -1537.0677936864      5.37e-06  Convergence criterion met
 ---------------------------------------
 SCF time:   CPU 139.58s  wall 139.00s 
 SCF   energy in the final basis set =    -1537.0677936864
 Total energy in the final basis set =    -1537.0677936864
 
 --------------------------------------------------------------
 
                    Orbital Energies (a.u.)
 --------------------------------------------------------------
 
 Alpha MOs
 -- Occupied --
-88.8915 -24.7331 -24.7223 -19.1852 -14.3725 -10.3426 -10.2554 -10.2462
-10.2377 -10.2351 -10.2309 -10.2237 -10.2189 -10.2012 -10.1976 -10.1957
-10.1946 -10.1943 -10.1937 -10.1927 -10.1915 -10.1893 -10.1834 -10.1808
-10.1777 -10.1775  -7.9523  -5.9173  -5.9138  -5.9074  -1.2726  -1.2122
 -1.0762  -0.9877  -0.8745  -0.8713  -0.8512  -0.8111  -0.7955  -0.7726
 -0.7644  -0.7523  -0.7432  -0.7295  -0.7100  -0.6794  -0.6507  -0.6358
 -0.6206  -0.6138  -0.6004  -0.5966  -0.5693  -0.5608  -0.5516  -0.5432
 -0.5201  -0.5069  -0.5055  -0.5013  -0.4900  -0.4787  -0.4776  -0.4641
 -0.4576  -0.4475  -0.4437  -0.4423  -0.4378  -0.4298  -0.4291  -0.4202
 -0.4123  -0.4106  -0.4088  -0.3998  -0.3897  -0.3837  -0.3793  -0.3712
 -0.3633  -0.3585  -0.3505  -0.3395  -0.3331  -0.3300  -0.3261  -0.2895
 -0.2827  -0.2573  -0.2494  -0.2457  -0.2399  -0.2077  -0.1808
 -- Virtual --
 -0.0234  -0.0119  -0.0083  -0.0050   0.0053   0.0107   0.0326   0.0742
  0.0819   0.0956   0.0983   0.1099   0.1172   0.1280   0.1401   0.1442
  0.1463   0.1483   0.1498   0.1548   0.1604   0.1638   0.1701   0.1771
  0.1809   0.1891   0.1942   0.1999   0.2012   0.2109   0.2154   0.2323
  0.2406   0.2615   0.2697   0.2823   0.2926   0.2980   0.3142   0.3179
  0.3239   0.3309   0.3472   0.3514   0.3588   0.3697   0.3823   0.3897
  0.3941   0.4169   0.4286   0.4338   0.4562   0.4878   0.5005   0.5014
  0.5074   0.5122   0.5215   0.5236   0.5255   0.5348   0.5375   0.5446
  0.5483   0.5546   0.5600   0.5673   0.5708   0.5738   0.5784   0.5866
  0.5899   0.5908   0.5935   0.5974   0.5992   0.6017   0.6064   0.6099
  0.6173   0.6199   0.6230   0.6308   0.6382   0.6482   0.6506   0.6525
  0.6568   0.6666   0.6728   0.6825   0.6967   0.7052   0.7135   0.7354
  0.7396   0.7675   0.7860   0.7882   0.8056   0.8159   0.8221   0.8262
  0.8292   0.8320   0.8377   0.8408   0.8459   0.8474   0.8524   0.8581
  0.8586   0.8703   0.8844   0.8875   0.8938   0.8984   0.9073   0.9159
  0.9201   0.9297   0.9359   0.9414   0.9550   0.9582   0.9692   0.9755
  0.9924   1.0007   1.0080   1.0105   1.0240   1.0352   1.0453   1.0498
  1.0562   1.0635   1.0828   1.0987   1.1094   1.1130   1.1182   1.1423
  1.1522   1.1654   1.1700   1.1781   1.1855   1.1943   1.2012   1.2143
  1.2280   1.2398   1.2430   1.2585   1.2672   1.2805   1.2915   1.3062
  1.3185   1.3251   1.3525   1.3626   1.3693   1.3765   1.3840   1.3917
  1.4139   1.4281   1.4317   1.4386   1.4455   1.4566   1.4573   1.4689
  1.4731   1.4779   1.4789   1.4850   1.5037   1.5051   1.5159   1.5265
  1.5326   1.5587   1.5619   1.5993   1.6166   1.6366   1.6639   1.6643
  1.7155   1.7273   1.7528   1.7653   1.7875   1.7932   1.7974   1.8092
  1.8115   1.8168   1.8252   1.8408   1.8470   1.8530   1.8616   1.8701
  1.8789   1.8864   1.8934   1.9177   1.9235   1.9302   1.9407   1.9495
  1.9563   1.9610   1.9632   1.9807   1.9939   2.0024   2.0070   2.0237
  2.0416   2.0436   2.0510   2.0749   2.0868   2.0904   2.0959   2.1054
  2.1205   2.1236   2.1450   2.1455   2.1547   2.1605   2.1667   2.1695
  2.1762   2.1984   2.2126   2.2332   2.2379   2.2488   2.2587   2.2653
  2.2918   2.2984   2.3100   2.3188   2.3334   2.3460   2.3524   2.3600
  2.3726   2.3840   2.4335   2.4465   2.4831   2.4952   2.5084   2.5314
  2.5494   2.5689   2.5800   2.6018   2.6244   2.6264   2.6435   2.6506
  2.6594   2.6673   2.6775   2.6977   2.7009   2.7138   2.7311   2.7422
  2.7511   2.7585   2.7891   2.8047   2.8171   2.8359   2.8455   2.8706
  2.9024   2.9224   2.9430   2.9726   2.9976   3.0015   3.0672   3.1288
  3.1565   3.2324   3.2497   3.3391   3.4030   3.4644   3.4953   3.9722
  4.0598   4.0903   4.0992   4.1106   4.1221   4.1315   4.1410   4.1664
  4.1861   4.2094   4.2142   4.2797   4.2982   4.3404   4.3540   4.3765
  4.4030   4.4067   4.4991   4.5517   4.7044   4.7504   4.7895   4.8339
  5.2851
 --------------------------------------------------------------
 
          Ground-State Mulliken Net Atomic Charges

     Atom                 Charge (a.u.)
  ----------------------------------------
      1 C                    -0.217022
      2 O                    -0.505499
      3 C                     0.376398
      4 C                    -0.211535
      5 C                     0.276110
      6 N                    -0.693136
      7 C                     0.261558
      8 C                    -0.098961
      9 S                     0.164693
     10 C                    -0.177466
     11 C                    -0.110917
     12 C                    -0.146810
     13 C                    -0.142948
     14 C                     0.360759
     15 C                    -0.193990
     16 C                    -0.206978
     17 C                     0.198803
     18 C                    -0.297908
     19 C                     0.532104
     20 F                    -0.240847
     21 F                    -0.255222
     22 C                    -0.206323
     23 C                    -0.196877
     24 C                    -0.106075
     25 C                    -0.183375
     26 C                    -0.181659
     27 H                     0.172730
     28 H                     0.153348
     29 H                     0.152558
     30 H                     0.157931
     31 H                     0.146228
     32 H                     0.133864
     33 H                     0.135847
     34 H                     0.151845
     35 H                     0.149744
     36 H                     0.125451
     37 H                     0.154254
     38 H                     0.136719
     39 H                     0.149457
     40 H                     0.147962
     41 H                     0.135182
  ----------------------------------------
  Sum of atomic charges =     0.000000

 -----------------------------------------------------------------
                    Cartesian Multipole Moments
 -----------------------------------------------------------------
    Charge (ESU x 10^10)
                 0.0000
    Dipole Moment (Debye)
         X      -3.6842      Y      -1.1790      Z      -0.9868
       Tot       3.9921
    Quadrupole Moments (Debye-Ang)
        XX    -153.0993     XY       9.4694     YY    -131.3178
        XZ      -1.6864     YZ      -4.1982     ZZ    -154.4904
    Octopole Moments (Debye-Ang^2)
       XXX     -84.1428    XXY     -66.3995    XYY     -32.7615
       YYY     -30.0766    XXZ       8.6080    XYZ      -9.1140
       YYZ     -16.9883    XZZ      27.0202    YZZ      -1.6634
       ZZZ     -13.8427
    Hexadecapole Moments (Debye-Ang^3)
      XXXX   -9848.1736   XXXY     381.7023   XXYY   -2038.2087
      XYYY     122.9765   YYYY   -4155.5346   XXXZ     -21.7850
      XXYZ      35.3641   XYYZ      50.1726   YYYZ      -1.5764
      XXZZ   -1707.2497   XYZZ      26.3352   YYZZ    -902.8095
      XZZZ      10.7663   YZZZ      -3.9217   ZZZZ    -903.2446
 -----------------------------------------------------------------
Archival summary:
1\1\nia1977.scinet.local\SP\ProcedureUnspecified\6-31G*\12112115\rhickman\MonFeb718:19:022022MonFeb718:19:022022\0\\#,ProcedureUnspecified,6-31G*,\\0,1\S\C,1,1.77316\C,2,1.38593,1,120.104\H,3,1.07895,2,119.172,1,1.86491,0\C,3,1.38257,2,119.778,1,-178.486,0\H,5,1.07899,3,119.801,2,-179.268,0\C,5,1.38593,3,119.942,2,1.79522,0\H,7,1.07927,5,120.135,3,178.188,0\C,7,1.38291,5,120.297,3,-1.54399,0\H,9,1.07963,7,120.549,5,179.12,0\C,9,1.39127,7,120.311,5,-1.27067,0\N,11,1.41061,9,121.421,7,-179.253,0\C,12,1.38323,11,122.73,9,57.5654,0\C,13,1.39991,12,121.288,11,175.97,0\H,14,1.07806,13,120.174,12,-0.779208,0\C,14,1.37577,13,120.808,12,-179.419,0\H,16,1.08038,14,118.923,13,-179.677,0\C,16,1.39714,14,121.713,13,0.580966,0\C,18,1.39664,16,117.369,14,2.06643,0\H,19,1.0776,18,120.326,16,177.452,0\C,19,1.37651,18,121.189,16,-1.99434,0\H,21,1.07842,19,118.667,18,177.833,0\C,12,1.40889,11,113.944,9,-127.819,0\C,23,1.3854,12,121.487,11,127.82,0\H,24,1.07831,23,120.57,12,-0.243477,0\C,24,1.39483,23,120.802,12,179.357,0\O,26,1.35949,24,115.389,23,-178.611,0\C,26,1.39192,24,119.503,23,1.61216,0\H,28,1.07755,26,121.306,24,-179.657,0\C,28,1.38363,26,119.713,24,1.37175,0\H,30,1.07883,28,120.159,26,178.647,0\C,30,1.3827,28,120.608,26,-1.97234,0\C,27,1.40769,26,118.598,24,-179.38,0\H,33,1.0887,27,105.621,26,179.584,0\H,33,1.09454,27,111.53,26,60.9527,0\H,33,1.09462,27,111.547,26,-61.804,0\C,18,1.44959,16,118.616,14,-179.011,0\H,37,1.08074,18,116.451,16,-1.26707,0\C,37,1.3255,18,128.597,16,178.441,0\F,39,1.33063,37,128.15,18,-0.0390169,0\F,39,1.3356,37,123.121,18,-179.89,0\\\@

 Total job time:  140.41s(wall), 140.03s(cpu) 
 Mon Feb  7 18:19:02 2022

        *************************************************************
        *                                                           *
        *  Thank you very much for using Q-Chem.  Have a nice day.  *
        *                                                           *
        *************************************************************


