26
 energy: -48.713920147531 gnorm: 0.000043290522 xtb: 6.5.0 (unknown)
C            0.75915436580000       -4.19444375460000        0.02049438580000
C            1.38651876380000       -3.11986394530000       -0.43697288310000
C            0.88268698960000       -1.75160257840000       -0.30884856540000
C           -0.46285965760000       -1.50621848050000       -0.43636852020000
C           -1.01208473210000       -0.21089605290000       -0.35483473690000
C           -2.45595046460000       -0.05008330790000       -0.49862782710000
C           -3.21315618380000        0.82643875160000        0.14204598500000
F           -2.83835449750000        1.69318173820000        1.06653015390000
F           -4.53006730080000        0.91318992560000       -0.03343484430000
C           -0.14265958930000        0.84170513350000       -0.17999433520000
F           -0.60910186690000        2.10673005970000       -0.18919028250000
C            1.24852591510000        0.65889176440000       -0.03495857470000
C            2.11537310550000        1.75339833150000        0.16639939200000
C            3.45650470200000        1.55273554090000        0.33344948520000
C            3.97866146950000        0.25242232390000        0.31241024970000
C            3.15900339380000       -0.82516974240000        0.11139405850000
C            1.77293610080000       -0.66039251620000       -0.08415798920000
H            1.16145924720000       -5.18374996370000       -0.11371619370000
H           -0.16811257650000       -4.12606571570000        0.56441607880000
H            2.33160615600000       -3.23232064320000       -0.95095265040000
H           -1.13603001840000       -2.32988457140000       -0.61973377110000
H           -2.96313189480000       -0.72895071320000       -1.16754480160000
H            1.69498389830000        2.74724832470000        0.19436552460000
H            4.11781400720000        2.39152855310000        0.48993987060000
H            5.03819481560000        0.10415080220000        0.46019719640000
H            3.57748391410000       -1.81943948480000        0.11487863970000
