23
 energy: -38.062627021568 gnorm: 0.000084881618 xtb: 6.5.0 (unknown)
C           -4.40749176020000        0.35957725280000        0.64524375350000
C           -3.35461658860000        0.74108155450000       -0.06255614100000
C           -2.08565037760000        0.00636907310000       -0.11539459500000
C           -2.10939590030000       -1.38564157140000       -0.17286472210000
C           -0.93740573870000       -2.11020294240000       -0.26589139610000
C            0.27527750290000       -1.45158508420000       -0.31977916280000
C            0.32552382390000       -0.05994581570000       -0.25999082400000
C            1.60764086910000        0.63653999720000       -0.36349141470000
C            2.77569386980000        0.18978369350000        0.06579072290000
F            3.02112202850000       -0.94321263930000        0.71412706860000
F            3.91914710720000        0.86039330710000       -0.08087059250000
C           -0.85898491330000        0.67915536900000       -0.13827318610000
C           -0.80573085260000        2.17261941250000        0.01413203550000
H           -5.32821122840000        0.91775112730000        0.63892297890000
H           -4.38395737340000       -0.51505229770000        1.27400101200000
H           -3.40984549660000        1.63909767900000       -0.66432168590000
H           -3.06121665150000       -1.89496406240000       -0.16528792100000
H           -0.96800431350000       -3.18827763180000       -0.31287251520000
H            1.18718776860000       -2.01719204850000       -0.42616762510000
H            1.62303936340000        1.60324219790000       -0.84313870190000
H            0.04891001220000        2.46759504190000        0.61840605270000
H           -1.70361578860000        2.54238690130000        0.50068492940000
H           -0.71923997730000        2.65502542850000       -0.96079290320000
