56
 energy: -64.413849245295 gnorm: 0.000030977581 xtb: 6.4.1 (23d549d)
C         0.46994007780000   -2.16206521480000   -2.67896076490000
C         0.28845058980000   -0.85371512490000   -2.61999527310000
C        -0.04360880080000   -0.11028313590000   -1.39187272310000
C        -1.27894683030000    0.52124117960000   -1.33020533640000
C        -1.71001084670000    1.22534880020000   -0.21421462470000
C        -3.12820308590000    1.72733762630000   -0.18814061410000
C        -4.10917637680000    0.54703719650000   -0.20326979860000
C        -3.94348539120000   -0.32886713630000    1.03618868680000
C        -4.75115427960000   -1.62564922860000    0.98033463690000
C        -4.33782046710000   -2.58932241800000   -0.13517735380000
C        -2.86552036080000   -2.98243369950000   -0.08444400760000
C        -0.83713168150000    1.33926772310000    0.87161223980000
C        -1.13761849920000    2.10721713940000    2.08696446710000
C        -1.53420870980000    3.37031035960000    2.10877094610000
C         0.40007188720000    0.70145881730000    0.80917373910000
C         0.81544117300000   -0.02762137810000   -0.29211379550000
C         2.19743680760000   -0.61618302270000   -0.31194182190000
C         3.16167903500000    0.34135942680000   -1.02131709620000
C         4.56919461930000   -0.23193888790000   -1.18632629930000
C         5.29021193950000   -0.56449522850000    0.12096800900000
C         5.50681084600000    0.64713293830000    1.02477215080000
C         6.34722035530000    0.29147954630000    2.24541496480000
H         0.68125052620000   -2.66683134120000   -3.60682150810000
H         0.39968459280000   -2.78471230750000   -1.80166599090000
H         0.32249764950000   -0.25915377920000   -3.52600587670000
H        -1.93727928890000    0.44225797360000   -2.18502884580000
H        -3.31178325230000    2.35641957830000   -1.06309700800000
H        -3.30668127930000    2.32245843400000    0.70629265590000
H        -3.93287302280000   -0.04912580340000   -1.09838397000000
H        -5.13272948610000    0.92635675230000   -0.25021482740000
H        -4.25624752430000    0.24065844080000    1.91546775980000
H        -2.88763048090000   -0.56929850030000    1.16615319230000
H        -5.81012545870000   -1.38372925690000    0.85674153550000
H        -4.64083216240000   -2.13851950920000    1.93937138490000
H        -4.55923077560000   -2.14859958820000   -1.10877513730000
H        -4.94960089060000   -3.49071395870000   -0.04435565290000
H        -2.22389624020000   -2.13547141960000   -0.31524072020000
H        -2.66232706990000   -3.76579115850000   -0.81173551190000
H        -2.60480177270000   -3.35586309940000    0.90377998250000
H        -0.94856965300000    1.58688327320000    3.01880046140000
H        -1.68391464520000    3.93541531960000    1.20346451760000
H        -1.70593396440000    3.89541054540000    3.03358505300000
H         1.06606276900000    0.79049290180000    1.65735380320000
H         2.20331503000000   -1.57175378250000   -0.83558846980000
H         2.53046625520000   -0.78123948170000    0.71330226260000
H         3.20163365780000    1.28472563810000   -0.47395698330000
H         2.76161558140000    0.55861850350000   -2.01505622540000
H         5.17117758100000    0.49018966050000   -1.74415542820000
H         4.50616380770000   -1.14219275970000   -1.78849416610000
H         6.26497574370000   -0.99220536740000   -0.12862200210000
H         4.73364573440000   -1.32863359290000    0.66662734240000
H         4.54388835960000    1.03708294460000    1.35842246560000
H         6.00665625570000    1.43534148310000    0.45678127950000
H         5.86081532670000   -0.48729839710000    2.82939435040000
H         6.48614728400000    1.16172324920000    2.88297964950000
H         7.32718102040000   -0.07188375200000    1.94295942630000
