
Running Job 1 of 1 tidas/B051/conf-0/spe_input.inp
qchem tidas/B051/conf-0/spe_input.inp_239633.0 /home/a/aspuru/seifridm/acdc_laser/descriptor_computation/qchem239633/ 0
/gpfs/fs1/scinet/niagara/software/commercial/qc54/exe/qcprog.exe_s tidas/B051/conf-0/spe_input.inp_239633.0 /home/a/aspuru/seifridm/acdc_laser/descriptor_computation/qchem239633/
                  Welcome to Q-Chem
     A Quantum Leap Into The Future Of Chemistry


 Q-Chem 5.4, Q-Chem, Inc., Pleasanton, CA (2021)

 License issued to: SRG Alan Aspuru-Guzik, University of Toronto

 E. Epifanovsky,  A. T. B. Gilbert,  Xintian Feng,  Joonho Lee,  Yuezhi Mao,  
 N. Mardirossian,  P. Pokhilko,  A. White,  M. Wormit,  M. P. Coons,  
 A. L. Dempwolff,  Zhengting Gan,  D. Hait,  P. R. Horn,  L. D. Jacobson,  
 I. Kaliman,  J. Kussmann,  A. W. Lange,  Ka Un Lao,  D. S. Levine,  Jie Liu,  
 S. C. McKenzie,  A. F. Morrison,  K. Nanda,  F. Plasser,  D. R. Rehn,  
 M. L. Vidal,  Zhi-Qiang You,  Ying Zhu,  B. Alam,  B. Albrecht,  
 A. Aldossary,  E. Alguire,  J. H. Andersen,  D. Barton,  K. Begam,  A. Behn,  
 Y. A. Bernard,  E. J. Berquist,  H. Burton,  A. Carreras,  K. Carter-Fenk,  
 Romit Chakraborty,  A. D. Chien,  K. D. Closser,  V. Cofer-Shabica,  
 S. Dasgupta,  Jia Deng,  M. de Wergifosse,  M. Diedenhofen,  Hainam Do,  
 S. Ehlert,  Po-Tung Fang,  S. Fatehi,  Qingguo Feng,  T. Friedhoff,  
 J. Gayvert,  Qinghui Ge,  G. Gidofalvi,  M. Goldey,  J. Gomes,  
 C. Gonzalez-Espinoza,  S. Gulania,  A. Gunina,  M. W. D. Hanson-Heine,  
 P. H. P. Harbach,  A. W. Hauser,  M. F. Herbst,  M. Hernandez Vera,  
 M. Hodecker,  Z. C. Holden,  S. Houck,  Xunkun Huang,  Kerwin Hui,  
 B. C. Huynh,  M. Ivanov,  Hyunjun Ji,  Hanjie Jiang,  B. Kaduk,  S. Kaehler,  
 K. Khistyaev,  Jaehoon Kim,  P. Klunzinger,  Z. Koczor-Benda,  
 Joong Hoon Koh,  D. Kosenkov,  L. Koulias,  T. Kowalczyk,  C. M. Krauter,  
 K. Kue,  A. Kunitsa,  T. Kus,  A. Landau,  K. V. Lawler,  D. Lefrancois,  
 S. Lehtola,  Rain Li,  Yi-Pei Li,  Jiashu Liang,  M. Liebenthal,  
 Hung-Hsuan Lin,  You-Sheng Lin,  Fenglai Liu,  Kuan-Yu Liu,  
 M. Loipersberger,  A. Luenser,  A. Manjanath,  P. Manohar,  E. Mansoor,  
 S. F. Manzer,  Shan-Ping Mao,  A. V. Marenich,  T. Markovich,  S. Mason,  
 S. A. Maurer,  P. F. McLaughlin,  M. F. S. J. Menger,  J.-M. Mewes,  
 S. A. Mewes,  P. Morgante,  J. W. Mullinax,  K. J. Oosterbaan,  G. Paran,  
 Alexander C. Paul,  Suranjan K. Paul,  F. Pavosevic,  Zheng Pei,  S. Prager,  
 E. I. Proynov,  E. Ramos,  B. Rana,  A. E. Rask,  A. Rettig,  R. M. Richard,  
 F. Rob,  E. Rossomme,  T. Scheele,  M. Scheurer,  M. Schneider,  
 N. Sergueev,  S. M. Sharada,  W. Skomorowski,  D. W. Small,  C. J. Stein,  
 Yu-Chuan Su,  E. J. Sundstrom,  Zhen Tao,  J. Thirman,  T. Tsuchimochi,  
 N. M. Tubman,  S. P. Veccham,  O. Vydrov,  J. Wenzel,  J. Witte,  A. Yamada,  
 Kun Yao,  S. Yeganeh,  S. R. Yost,  A. Zech,  Igor Ying Zhang,  Xing Zhang,  
 Yu Zhang,  D. Zuev,  A. Aspuru-Guzik,  A. T. Bell,  N. A. Besley,  
 K. B. Bravaya,  B. R. Brooks,  D. Casanova,  Jeng-Da Chai,  S. Coriani,  
 C. J. Cramer,  A. E. DePrince, III,  R. A. DiStasio Jr.,  A. Dreuw,  
 B. D. Dunietz,  T. R. Furlani,  W. A. Goddard III,  S. Grimme,  
 S. Hammes-Schiffer,  T. Head-Gordon,  W. J. Hehre,  Chao-Ping Hsu,  
 T.-C. Jagau,  Yousung Jung,  A. Klamt,  Jing Kong,  D. S. Lambrecht,  
 WanZhen Liang,  N. J. Mayhall,  C. W. McCurdy,  J. B. Neaton,  T. Neudecker,  
 C. Ochsenfeld,  J. A. Parkhill,  R. Peverati,  V. A. Rassolov,  Yihan Shao,  
 L. V. Slipchenko,  R. P. Steele,  J. E. Subotnik,  A. J. W. Thom,  
 A. Tkatchenko,  D. G. Truhlar,  T. Van Voorhis,  T. A. Wesolowski,  
 K. B. Whaley,  H. L. Woodcock III,  P. M. Zimmerman,  S. Faraji,  
 P. M. W. Gill,  M. Head-Gordon,  J. M. Herbert,  A. I. Krylov

 Additional authors since Version 5.4.0: 
 Chandrima Chakravarty,  L. Cunha,  R. Kang,  Yongbin Kim,  S. Kotaru,  
 Shaozhi Li,  Xiangyuan Li,  F. Matz,  A. Molle,  V. Parravicini,  
 Haisheng Ren,  Hengyuan Shen,  Yingli Su,  Hung-Yi Tsai,  C. Utku,  
 Fang Wang,  Jeff Yang,  F. Zeller

 Contributors to earlier versions of Q-Chem not listed above: 
 R. D. Adamson,  B. Austin,  R. Baer,  J. Baker,  G. J. O. Beran,  
 K. Brandhorst,  S. T. Brown,  E. F. C. Byrd,  Arup K. Chakraborty,  
 G. K. L. Chan,  Chun-Min Chang,  Yunqing Chen,  C.-L. Cheng,  
 Siu Hung Chien,  D. M. Chipman,  D. L. Crittenden,  H. Dachsel,  
 R. J. Doerksen,  A. D. Dutoi,  R. G. Edgar,  J. Fosso-Tande,  
 L. Fusti-Molnar,  D. Ghosh,  A. Ghysels,  A. Golubeva-Zadorozhnaya,  
 J. Gonthier,  M. S. Gordon,  S. R. Gwaltney,  G. Hawkins,  J. E. Herr,  
 A. Heyden,  S. Hirata,  E. G. Hohenstein,  G. Kedziora,  F. J. Keil,  
 C. Kelley,  Jihan Kim,  R. A. King,  R. Z. Khaliullin,  P. P. Korambath,  
 W. Kurlancheek,  A. Laurent,  A. M. Lee,  M. S. Lee,  S. V. Levchenko,  
 Ching Yeh Lin,  D. Liotard,  E. Livshits,  R. C. Lochan,  I. Lotan,  
 L. A. Martinez-Martinez,  P. E. Maslen,  N. Nair,  D. P. O'Neill,  
 D. Neuhauser,  E. Neuscamman,  C. M. Oana,  R. Olivares-Amaya,  R. Olson,  
 T. M. Perrine,  B. Peters,  P. A. Pieniazek,  A. Prociuk,  Y. M. Rhee,  
 J. Ritchie,  M. A. Rohrdanz,  E. Rosta,  N. J. Russ,  H. F. Schaefer III,  
 M. W. Schmidt,  N. E. Schultz,  S. Sharma,  N. Shenvi,  C. D. Sherrill,  
 A. C. Simmonett,  A. Sodt,  T. Stein,  D. Stuck,  K. S. Thanthiriwatte,  
 V. Vanovschi,  L. Vogt,  Tao Wang,  A. Warshel,  M. A. Watson,  
 C. F. Williams,  Q. Wu,  X. Xu,  Jun Yang,  W. Zhang,  Yan Zhao

   Please cite Q-Chem as follows:
  "Software for the frontiers of quantum chemistry:
   An overview of developments in the Q-Chem 5 package"
   J. Chem. Phys. 155, 084801 (2021)
   https://doi.org/10.1063/5.0055522 (open access)

 Q-Chem 5.4.2 for Intel X86 EM64T Linux

 Parts of Q-Chem use Armadillo 9.900.5 (Nocturnal Misbehaviour).
 http://arma.sourceforge.net/

 Q-Chem begins on Fri Aug 12 12:43:23 2022  

 Host: 
0

     Scratch files written to /home/a/aspuru/seifridm/acdc_laser/descriptor_computation/qchem239633//
 Dec1321 |scratch|qcdevops|jenkins|workspace|build_RNUM 6959   
 Processing $rem in /gpfs/fs1/scinet/niagara/software/commercial/qc54/config/preferences:
 Processing $rem in /home/a/aspuru/seifridm/.qchemrc:

 Checking the input file for inconsistencies... 	...done.

--------------------------------------------------------------
User input:
--------------------------------------------------------------
$molecule
0 1
C            1.57250177040000       -3.06800810160000       -0.04187448330000
C            1.21776634800000       -1.89834202240000       -0.55492101300000
C           -0.03209454010000       -1.20093884180000       -0.26027352210000
C           -1.20104071500000       -1.92459992880000       -0.02569919660000
C           -2.41555156010000       -1.30011976410000        0.17132492760000
C           -2.48160846690000        0.08170681290000        0.11956326250000
F           -3.65989457830000        0.70218515470000        0.29019878080000
C           -1.33340621640000        0.82231915320000       -0.11132908870000
F           -1.40304575220000        2.16508723540000       -0.15126489960000
C           -0.09521834350000        0.20286377700000       -0.28439856190000
C            1.06494684520000        1.07087332680000       -0.48162630460000
C            2.25076827840000        0.91921014980000        0.08475350560000
F            2.61679907910000       -0.02890287710000        0.93523042310000
F            3.26934071950000        1.74752295450000       -0.11241092750000
H            2.50112429470000       -3.53971338820000       -0.31061167890000
H            0.96776276520000       -3.58227500130000        0.68544552710000
H            1.87784810210000       -1.39474981660000       -1.24955825450000
H           -1.15490569270000       -3.00177959580000       -0.02245330710000
H           -3.31728108620000       -1.86287240850000        0.35095523690000
H            0.92299971570000        1.95669649410000       -1.08368165300000
$end

$rem
BASIS = 6-31G*
GUI = 2
METHOD = B3LYP
PRINT_ORBITALS false
MOLDEN_FORMAT false
$end
--------------------------------------------------------------
 ----------------------------------------------------------------
             Standard Nuclear Orientation (Angstroms)
    I     Atom           X                Y                Z
 ----------------------------------------------------------------
    1      C       1.5909616075     2.9779962375     0.0332269721
    2      C       1.2304261340     1.8087108224     0.5430882167
    3      C      -0.0266281998     1.1223523311     0.2531451134
    4      C      -1.1913943540     1.8560951569     0.0293440531
    5      C      -2.4119204015     1.2419270909    -0.1628650218
    6      C      -2.4883426109    -0.1395762913    -0.1170881188
    7      F      -3.6724483542    -0.7501455499    -0.2831205923
    8      C      -1.3444737639    -0.8900925001     0.1030840991
    9      F      -1.4242506928    -2.2324559858     0.1372391935
   10      C      -0.1004618136    -0.2810194215     0.2711658258
   11      C       1.0541710684    -1.1588622797     0.4570083674
   12      C       2.2375357327    -1.0136965684    -0.1161715935
   13      F       2.6055234687    -0.0644624621    -0.9645509211
   14      F       3.2508897672    -1.8507522778     0.0706895158
   15      H       2.5248833539     3.4412641709     0.2982521477
   16      H       0.9856466637     3.5003101828    -0.6878528206
   17      H       1.8909575954     1.2967974455     1.2311847304
   18      H      -1.1369449946     2.9328904806     0.0307963228
   19      H      -3.3103821462     1.8124504573    -0.3341639031
   20      H       0.9091714342    -2.0463737241     1.0558412789
 ----------------------------------------------------------------
 Molecular Point Group                 C1    NOp =  1
 Largest Abelian Subgroup              C1    NOp =  1
 Nuclear Repulsion Energy =         873.28502592 hartrees
 There are       51 alpha and       51 beta electrons
 Requested basis set is 6-31G(d)
 There are 68 shells and 222 basis functions

 Total QAlloc Memory Limit   8000 MB
 Mega-Array Size       188 MB
 MEM_STATIC part       192 MB
 A cutoff of  1.0D-08 yielded   1597 shell pairs
 There are     18103 function pairs
 Smallest overlap matrix eigenvalue = 3.39E-04

 Scale SEOQF with 1.000000e-01/1.000000e-01/1.000000e+00

 Standard Electronic Orientation quadrupole field applied
 Nucleus-field energy     =     0.0000000168 hartrees
 Guess from superposition of atomic densities
 Warning:  Energy on first SCF cycle will be non-variational
 SAD guess density has 102.000000 electrons

 -----------------------------------------------------------------------
  General SCF calculation program by
  Eric Jon Sundstrom, Paul Horn, Yuezhi Mao, Dmitri Zuev, Alec White,
  David Stuck, Shaama M.S., Shane Yost, Joonho Lee, David Small,
  Daniel Levine, Susi Lehtola, Hugh Burton, Evgeny Epifanovsky,
  Bang C. Huynh
 -----------------------------------------------------------------------
 Exchange:     0.2000 Hartree-Fock + 0.0800 Slater + 0.7200 B88
 Correlation:  0.1900 VWN1RPA + 0.8100 LYP
 Using SG-1 standard quadrature grid
 A restricted SCF calculation will be
 performed using DIIS
 SCF converges when DIIS error is below 1.0e-05
 ---------------------------------------
  Cycle       Energy         DIIS error
 ---------------------------------------
    1    -787.0366084666      5.24e-02  
    2    -783.7661065789      5.84e-03  
    3    -783.5633025239      8.11e-03  
    4    -783.9569016304      1.35e-03  
    5    -783.9675168873      4.81e-04  
    6    -783.9685895633      2.40e-04  
    7    -783.9689527347      4.77e-05  
    8    -783.9689646532      1.86e-05  
    9    -783.9689670568      4.46e-06  Convergence criterion met
 ---------------------------------------
 SCF time:   CPU 51.73s  wall 58.00s 
 SCF   energy in the final basis set =     -783.9689670568
 Total energy in the final basis set =     -783.9689670568
 
 --------------------------------------------------------------
 
                    Orbital Energies (a.u.)
 --------------------------------------------------------------
 
 Alpha MOs
 -- Occupied --
-24.7459 -24.7421 -24.7208 -24.7165 -10.3660 -10.2837 -10.2827 -10.2229
-10.2114 -10.2112 -10.2061 -10.2024 -10.1972 -10.1859  -1.2916  -1.2377
 -1.2308  -1.2242  -0.8893  -0.8210  -0.8021  -0.7567  -0.7357  -0.6632
 -0.6439  -0.6239  -0.5847  -0.5803  -0.5628  -0.5322  -0.5287  -0.5207
 -0.5051  -0.4892  -0.4844  -0.4556  -0.4505  -0.4470  -0.4439  -0.4407
 -0.4305  -0.4225  -0.4094  -0.3897  -0.3733  -0.3673  -0.3530  -0.2988
 -0.2927  -0.2425  -0.2303
 -- Virtual --
 -0.0395  -0.0221   0.0349   0.0476   0.0744   0.1090   0.1158   0.1257
  0.1448   0.1613   0.1704   0.1812   0.1919   0.2058   0.2238   0.2736
  0.3063   0.3230   0.3374   0.3615   0.3696   0.4057   0.4117   0.4650
  0.4883   0.4962   0.4989   0.5166   0.5222   0.5248   0.5330   0.5620
  0.5655   0.5710   0.5823   0.5941   0.6016   0.6080   0.6251   0.6373
  0.6553   0.6720   0.6810   0.6962   0.7175   0.7558   0.7716   0.8222
  0.8342   0.8395   0.8598   0.8636   0.8700   0.8952   0.9169   0.9346
  0.9385   0.9412   0.9799   0.9879   1.0073   1.0497   1.0690   1.0998
  1.1167   1.1383   1.1671   1.1749   1.1851   1.1949   1.2137   1.2245
  1.2398   1.2771   1.2893   1.2957   1.3341   1.3573   1.3608   1.3804
  1.3979   1.4209   1.4394   1.4487   1.4538   1.4581   1.4846   1.4993
  1.5072   1.5761   1.5830   1.6508   1.6691   1.7100   1.7165   1.7446
  1.7613   1.7746   1.7842   1.7909   1.8060   1.8175   1.8377   1.8405
  1.8491   1.8622   1.8784   1.8899   1.8981   1.9436   1.9732   1.9803
  2.0021   2.0073   2.0107   2.0214   2.0514   2.0790   2.0875   2.1056
  2.1216   2.1665   2.1795   2.2013   2.2314   2.2545   2.2794   2.3051
  2.3156   2.3275   2.3483   2.3728   2.4221   2.4313   2.4493   2.5161
  2.5318   2.5626   2.6003   2.6229   2.6326   2.6460   2.6956   2.7115
  2.7374   2.7734   2.8382   2.8993   2.9662   3.0148   3.0379   3.0453
  3.1156   3.1570   3.2040   3.3368   3.4641   4.0487   4.0738   4.0978
  4.1092   4.1538   4.2593   4.2756   4.4124   4.4342   4.7415   4.7843
  4.9028   5.2762   6.1509
 --------------------------------------------------------------
 
          Ground-State Mulliken Net Atomic Charges

     Atom                 Charge (a.u.)
  ----------------------------------------
      1 C                    -0.338941
      2 C                    -0.128569
      3 C                     0.122685
      4 C                    -0.183351
      5 C                    -0.201258
      6 C                     0.325717
      7 F                    -0.282571
      8 C                     0.254391
      9 F                    -0.275927
     10 C                     0.014970
     11 C                    -0.325255
     12 C                     0.571706
     13 F                    -0.224783
     14 F                    -0.240147
     15 H                     0.147291
     16 H                     0.145175
     17 H                     0.140553
     18 H                     0.142248
     19 H                     0.155055
     20 H                     0.181011
  ----------------------------------------
  Sum of atomic charges =     0.000000

 -----------------------------------------------------------------
                    Cartesian Multipole Moments
 -----------------------------------------------------------------
    Charge (ESU x 10^10)
                 0.0000
    Dipole Moment (Debye)
         X       0.4219      Y       1.6624      Z       0.4856
       Tot       1.7825
    Quadrupole Moments (Debye-Ang)
        XX     -78.5755     XY      -3.1399     YY     -72.6944
        XZ       1.7478     YZ      -1.6711     ZZ     -76.2303
    Octopole Moments (Debye-Ang^2)
       XXX      10.7556    XXY       9.2610    XYY       4.0047
       YYY     -20.7823    XXZ       1.0220    XYZ       2.7690
       YYZ      -5.9907    XZZ       3.7491    YZZ     -17.8938
       ZZZ      -9.3830
    Hexadecapole Moments (Debye-Ang^3)
      XXXX   -1947.4062   XXXY     -18.5654   XXYY    -494.0399
      XYYY      -4.6871   YYYY   -1126.4236   XXXZ      -0.7484
      XXYZ       0.9447   XYYZ      -0.2006   YYYZ     -24.6592
      XXZZ    -338.0768   XYZZ       0.0440   YYZZ    -219.6094
      XZZZ     -11.7168   YZZZ      -4.7676   ZZZZ    -133.7951
 -----------------------------------------------------------------
 Total job time:  60.28s(wall), 52.17s(cpu) 
 Fri Aug 12 12:44:23 2022

        *************************************************************
        *                                                           *
        *  Thank you very much for using Q-Chem.  Have a nice day.  *
        *                                                           *
        *************************************************************


