
Running Job 1 of 1 fragments/B012/conf-2/spe_input.inp
qchem fragments/B012/conf-2/spe_input.inp_27651.0 /gpfs/fs0/scratch/a/aspuru/rhickman/descriptor_computation/qchem27651/ 0
/scinet/niagara/software/commercial/qc52/exe/qcprog.exe_s fragments/B012/conf-2/spe_input.inp_27651.0 /gpfs/fs0/scratch/a/aspuru/rhickman/descriptor_computation/qchem27651/
                  Welcome to Q-Chem
     A Quantum Leap Into The Future Of Chemistry


 Q-Chem 5.2, Q-Chem, Inc., Pleasanton, CA (2019)

 License issued to: SRG Alan Aspuru-Guzik, University of Toronto

 Yihan Shao,  Zhengting Gan,  E. Epifanovsky,  A. T. B. Gilbert,  M. Wormit,  
 J. Kussmann,  A. W. Lange,  A. Behn,  Jia Deng,  Xintian Feng,  D. Ghosh,  
 M. Goldey,  P. R. Horn,  L. D. Jacobson,  I. Kaliman,  T. Kus,  A. Landau,  
 Jie Liu,  E. I. Proynov,  R. M. Richard,  R. P. Steele,  E. J. Sundstrom,  
 H. L. Woodcock III,  P. M. Zimmerman,  D. Zuev,  B. Albrecht,  E. Alguire,  
 S. A. Baeppler,  D. Barton,  Z. Benda,  Y. A. Bernard,  E. J. Berquist,  
 K. B. Bravaya,  H. Burton,  D. Casanova,  Chun-Min Chang,  Yunqing Chen,  
 A. Chien,  K. D. Closser,  M. P. Coons,  S. Coriani,  S. Dasgupta,  
 A. L. Dempwolff,  M. Diedenhofen,  Hainam Do,  R. G. Edgar,  Po-Tung Fang,  
 S. Faraji,  S. Fatehi,  Qingguo Feng,  K. D. Fenk,  J. Fosso-Tande,  
 J. Gayvert,  Qinghui Ge,  A. Ghysels,  G. Gidofalvi,  J. Gomes,  
 J. Gonthier,  A. Gunina,  D. Hait,  M. W. D. Hanson-Heine,  
 P. H. P. Harbach,  A. W. Hauser,  M. F. Herbst,  J. E. Herr,  
 E. G. Hohenstein,  Z. C. Holden,  Kerwin Hui,  B. C. Huynh,  T.-C. Jagau,  
 Hyunjun Ji,  B. Kaduk,  K. Khistyaev,  Jaehoon Kim,  P. Klunzinger,  K. Koh,  
 D. Kosenkov,  L. Koulias,  T. Kowalczyk,  C. M. Krauter,  A. Kunitsa,  
 Ka Un Lao,  A. Laurent,  K. V. Lawler,  Joonho Lee,  D. Lefrancois,  
 S. Lehtola,  D. S. Levine,  Yi-Pei Li,  You-Sheng Lin,  Fenglai Liu,  
 E. Livshits,  A. Luenser,  P. Manohar,  E. Mansoor,  S. F. Manzer,  
 Shan-Ping Mao,  Yuezhi Mao,  N. Mardirossian,  A. V. Marenich,  
 T. Markovich,  L. A. Martinez-Martinez,  S. A. Maurer,  N. J. Mayhall,  
 S. C. McKenzie,  J.-M. Mewes,  P. Morgante,  A. F. Morrison,  
 J. W. Mullinax,  K. Nanda,  T. S. Nguyen-Beck,  R. Olivares-Amaya,  
 J. A. Parkhill,  Zheng Pei,  T. M. Perrine,  F. Plasser,  P. Pokhilko,  
 S. Prager,  A. Prociuk,  E. Ramos,  D. R. Rehn,  F. Rob,  M. Scheurer,  
 M. Schneider,  N. Sergueev,  S. M. Sharada,  S. Sharma,  D. W. Small,  
 T. Stauch,  T. Stein,  Yu-Chuan Su,  A. J. W. Thom,  A. Tkatchenko,  
 T. Tsuchimochi,  N. M. Tubman,  L. Vogt,  M. L. Vidal,  O. Vydrov,  
 M. A. Watson,  J. Wenzel,  M. de Wergifosse,  T. A. Wesolowski,  A. White,  
 J. Witte,  A. Yamada,  Jun Yang,  K. Yao,  S. Yeganeh,  S. R. Yost,  
 Zhi-Qiang You,  A. Zech,  Igor Ying Zhang,  Xing Zhang,  Yan Zhao,  
 Ying Zhu,  B. R. Brooks,  G. K. L. Chan,  C. J. Cramer,  M. S. Gordon,  
 W. J. Hehre,  A. Klamt,  M. W. Schmidt,  C. D. Sherrill,  D. G. Truhlar,  
 A. Aspuru-Guzik,  R. Baer,  A. T. Bell,  N. A. Besley,  Jeng-Da Chai,  
 A. E. DePrince, III,  R. A. DiStasio Jr.,  A. Dreuw,  B. D. Dunietz,  
 T. R. Furlani,  Chao-Ping Hsu,  Yousung Jung,  Jing Kong,  D. S. Lambrecht,  
 WanZhen Liang,  C. Ochsenfeld,  V. A. Rassolov,  L. V. Slipchenko,  
 J. E. Subotnik,  T. Van Voorhis,  J. M. Herbert,  A. I. Krylov,  
 P. M. W. Gill,  M. Head-Gordon

 Contributors to earlier versions of Q-Chem not listed above: 
 R. D. Adamson,  B. Austin,  J. Baker,  G. J. O. Beran,  K. Brandhorst,  
 S. T. Brown,  E. F. C. Byrd,  A. K. Chakraborty,  C.-L. Cheng,  
 Siu Hung Chien,  D. M. Chipman,  D. L. Crittenden,  H. Dachsel,  
 R. J. Doerksen,  A. D. Dutoi,  L. Fusti-Molnar,  W. A. Goddard III,  
 A. Golubeva-Zadorozhnaya,  S. R. Gwaltney,  G. Hawkins,  A. Heyden,  
 S. Hirata,  G. Kedziora,  F. J. Keil,  C. Kelley,  Jihan Kim,  R. A. King,  
 R. Z. Khaliullin,  P. P. Korambath,  W. Kurlancheek,  A. M. Lee,  M. S. Lee,  
 S. V. Levchenko,  Ching Yeh Lin,  D. Liotard,  R. C. Lochan,  I. Lotan,  
 P. E. Maslen,  N. Nair,  D. P. O'Neill,  D. Neuhauser,  E. Neuscamman,  
 C. M. Oana,  R. Olson,  B. Peters,  R. Peverati,  P. A. Pieniazek,  
 Y. M. Rhee,  J. Ritchie,  M. A. Rohrdanz,  E. Rosta,  N. J. Russ,  
 H. F. Schaefer III,  N. E. Schultz,  N. Shenvi,  A. C. Simmonett,  A. Sodt,  
 D. Stuck,  K. S. Thanthiriwatte,  V. Vanovschi,  Tao Wang,  A. Warshel,  
 C. F. Williams,  Q. Wu,  X. Xu,  W. Zhang

 Please cite Q-Chem as follows:
 Y. Shao et al., Mol. Phys. 113, 184-215 (2015)
 DOI: 10.1080/00268976.2014.952696

 Q-Chem 5.2.1 for Intel X86 EM64T Linux

 Parts of Q-Chem use Armadillo 8.300.2 (Tropical Shenanigans).
 http://arma.sourceforge.net/

 Q-Chem begins on Mon Feb  7 12:31:46 2022  

Host: 
0

     Scratch files written to /gpfs/fs0/scratch/a/aspuru/rhickman/descriptor_computation/qchem27651//
 Jul1719 |scratch|qcdevops|jenkins|workspace|build_RNUM -1
Processing $rem in /scinet/niagara/software/commercial/qc52/config/preferences:
	 MEM_TOTAL  4000 
NAlpha2: 94
NElect   94
Mult     1

Checking the input file for inconsistencies... 	...done.

--------------------------------------------------------------
User input:
--------------------------------------------------------------
$molecule
0 1
C        -3.95146398600000    2.39224169050000   -0.04353871460000
C        -2.62635594400000    2.37153212380000    0.03105293710000
C        -1.77408870570000    1.18766507920000    0.01919832340000
C        -2.28670783970000   -0.10989368720000    0.01035155590000
C        -1.41024318860000   -1.17565645410000   -0.00129058500000
F        -1.91679824270000   -2.42572468810000   -0.00873074260000
C        -0.03740510380000   -1.02186395960000   -0.00470380350000
C         0.48755154270000    0.27081503640000    0.00572427320000
C         1.91550309000000    0.54892817990000    0.00482400050000
C         2.92095787810000   -0.31414442400000   -0.00293139920000
F         2.86090016010000   -1.63802686840000   -0.01189870670000
F         4.19729147640000    0.06048385470000   -0.00258261190000
C        -0.39066410780000    1.35380256310000    0.01883427510000
H        -4.49590851930000    3.32050978800000   -0.02922718020000
H        -4.54724795140000    1.49970718980000   -0.12457916980000
H        -2.08966935880000    3.30923147870000    0.10294160710000
H        -3.34674580270000   -0.30088579870000    0.01659587910000
H         0.58833094390000   -1.89770735460000   -0.01393352210000
H         2.20425255510000    1.58986010750000    0.01156969070000
H         0.01462996500000    2.35529375900000    0.02703743580000
$end

$rem
BASIS = 6-31G*
GUI = 2
METHOD = B3LYP
PRINT_ORBITALS false
MOLDEN_FORMAT false
--------------------------------------------------------------
 ----------------------------------------------------------------
             Standard Nuclear Orientation (Angstroms)
    I     Atom           X                Y                Z
 ----------------------------------------------------------------
    1      C       4.3528982542     1.1632697092     0.0473167195
    2      C       3.0734818805     1.5092453441    -0.0254756300
    3      C       1.9276860476     0.6064037381    -0.0171030200
    4      C       2.0624413482    -0.7822458001    -0.0141259428
    5      C       0.9259698799    -1.5648910979    -0.0054634286
    6      F       1.0679978109    -2.9062146651    -0.0036961433
    7      C      -0.3511612061    -1.0383469652     0.0005076727
    8      C      -0.4991218869     0.3490225075    -0.0040525271
    9      C      -1.7949304991     1.0102767398    -0.0000234608
   10      C      -2.9994688171     0.4580557377     0.0057386557
   11      F      -3.3069739495    -0.8310445084     0.0093742698
   12      F      -4.1229171313     1.1702559355     0.0086859605
   13      C       0.6437842205     1.1477470643    -0.0141171149
   14      H       5.1323018141     1.9053656165     0.0359111943
   15      H       4.6793491157     0.1406762219     0.1239738687
   16      H       2.8162975497     2.5589084415    -0.0928859689
   17      H       3.0286481207    -1.2582390647    -0.0226315874
   18      H      -1.1942398671    -1.7076052351     0.0071545556
   19      H      -1.7853021457     2.0904912755    -0.0022341939
   20      H       0.5305095115     2.2222100205    -0.0177761938
 ----------------------------------------------------------------
 Molecular Point Group                 C1    NOp =  1
 Largest Abelian Subgroup              C1    NOp =  1
 Nuclear Repulsion Energy =         729.11621059 hartrees
 There are       47 alpha and       47 beta electrons
 Requested basis set is 6-31G(d)
 There are 66 shells and 209 basis functions

 Total QAlloc Memory Limit   4000 MB
 Mega-Array Size       188 MB
 MEM_STATIC part       192 MB
 A cutoff of  1.0D-08 yielded   1460 shell pairs
 There are     15377 function pairs
 Smallest overlap matrix eigenvalue = 3.90E-04

 Scale SEOQF with 1.000000e-01/1.000000e-01/1.000000e+00

 Standard Electronic Orientation quadrupole field applied
 Nucleus-field energy     =     0.0000000357 hartrees
 Guess from superposition of atomic densities
 Warning:  Energy on first SCF cycle will be non-variational
 SAD guess density has 94.000000 electrons

 -----------------------------------------------------------------------
  General SCF calculation program by
  Eric Jon Sundstrom, Paul Horn, Yuezhi Mao, Dmitri Zuev, Alec White,
  David Stuck, Shaama M.S., Shane Yost, Joonho Lee, David Small,
  Daniel Levine, Susi Lehtola, Hugh Burton, Evgeny Epifanovsky,
  Bang C. Huynh
 -----------------------------------------------------------------------
 Exchange:     0.2000 Hartree-Fock + 0.0800 Slater + 0.7200 B88
 Correlation:  0.1900 VWN1RPA + 0.8100 LYP
 Using SG-1 standard quadrature grid
 A restricted SCF calculation will be
 performed using DIIS
 SCF converges when DIIS error is below 1.0e-05
 ---------------------------------------
  Cycle       Energy         DIIS error
 ---------------------------------------
    1    -687.6230465705      5.45e-02  
    2    -684.5412602713      6.16e-03  
    3    -684.3485813746      8.48e-03  
    4    -684.7327054163      1.70e-03  
    5    -684.7478775389      5.39e-04  
    6    -684.7491261489      2.55e-04  
    7    -684.7494879735      5.68e-05  
    8    -684.7495038368      1.99e-05  
    9    -684.7495058051      4.34e-06  Convergence criterion met
 ---------------------------------------
 SCF time:   CPU 25.23s  wall 26.00s 
 SCF   energy in the final basis set =     -684.7495058051
 Total energy in the final basis set =     -684.7495058051
 
 --------------------------------------------------------------
 
                    Orbital Energies (a.u.)
 --------------------------------------------------------------
 
 Alpha MOs
 -- Occupied --
-24.7510 -24.7402 -24.7038 -10.3638 -10.2730 -10.2176 -10.2092 -10.2084
-10.1981 -10.1949 -10.1947 -10.1942 -10.1879  -1.2927  -1.2313  -1.2163
 -0.8808  -0.8231  -0.7914  -0.7496  -0.7369  -0.6608  -0.6349  -0.6169
 -0.5857  -0.5722  -0.5393  -0.5257  -0.5205  -0.5035  -0.4863  -0.4627
 -0.4593  -0.4470  -0.4441  -0.4393  -0.4335  -0.4172  -0.3892  -0.3842
 -0.3827  -0.3666  -0.3502  -0.3265  -0.2814  -0.2361  -0.2266
 -- Virtual --
 -0.0482  -0.0170   0.0355   0.0818   0.0849   0.1032   0.1135   0.1314
  0.1486   0.1594   0.1813   0.1817   0.1973   0.2065   0.2187   0.2741
  0.2930   0.2990   0.3428   0.3728   0.3857   0.4135   0.4449   0.4690
  0.4894   0.4912   0.5123   0.5213   0.5309   0.5440   0.5476   0.5626
  0.5672   0.5765   0.5819   0.6117   0.6150   0.6184   0.6300   0.6398
  0.6440   0.6738   0.6902   0.6931   0.7596   0.7730   0.7833   0.7997
  0.8269   0.8310   0.8590   0.8648   0.8846   0.8925   0.9293   0.9413
  0.9492   0.9723   0.9907   1.0383   1.0503   1.0963   1.1011   1.1298
  1.1537   1.1558   1.1762   1.1903   1.2048   1.2217   1.2237   1.2417
  1.2503   1.3018   1.3159   1.3347   1.3645   1.3951   1.3975   1.4244
  1.4332   1.4451   1.4545   1.4657   1.4769   1.5051   1.5194   1.5348
  1.5734   1.6378   1.6692   1.6970   1.7578   1.7691   1.7760   1.8022
  1.8090   1.8296   1.8314   1.8538   1.8567   1.8829   1.8878   1.9302
  1.9431   1.9452   1.9658   1.9818   1.9881   1.9904   2.0188   2.0253
  2.0333   2.0862   2.1079   2.1407   2.1558   2.1998   2.2113   2.2276
  2.2548   2.2851   2.3094   2.3164   2.3366   2.3448   2.4407   2.4767
  2.5131   2.5205   2.5491   2.5649   2.5814   2.6392   2.6628   2.6841
  2.6919   2.7178   2.8110   2.8556   2.9020   2.9205   3.0317   3.0568
  3.1257   3.1336   3.1929   3.3211   3.4754   4.0705   4.0844   4.0892
  4.1166   4.1456   4.2313   4.2600   4.3750   4.4855   4.6835   4.8109
  5.2836   5.3663
 --------------------------------------------------------------
 
          Ground-State Mulliken Net Atomic Charges

     Atom                 Charge (a.u.)
  ----------------------------------------
      1 C                    -0.349435
      2 C                    -0.111205
      3 C                     0.184946
      4 C                    -0.264728
      5 C                     0.398896
      6 F                    -0.299940
      7 C                    -0.276043
      8 C                     0.202623
      9 C                    -0.296635
     10 C                     0.549230
     11 F                    -0.230867
     12 F                    -0.245115
     13 C                    -0.274809
     14 H                     0.148886
     15 H                     0.147642
     16 H                     0.130678
     17 H                     0.141655
     18 H                     0.153039
     19 H                     0.162449
     20 H                     0.128735
  ----------------------------------------
  Sum of atomic charges =     0.000000

 -----------------------------------------------------------------
                    Cartesian Multipole Moments
 -----------------------------------------------------------------
    Charge (ESU x 10^10)
                 0.0000
    Dipole Moment (Debye)
         X       0.7766      Y       1.7125      Z      -0.0040
       Tot       1.8804
    Quadrupole Moments (Debye-Ang)
        XX     -68.8555     XY       1.6059     YY     -70.4068
        XZ       0.0933     YZ      -0.1672     ZZ     -74.2635
    Octopole Moments (Debye-Ang^2)
       XXX      -2.9127    XXY      -7.2755    XYY     -15.5066
       YYY       3.7751    XXZ       0.7840    XYZ      -0.4100
       YYZ      -0.3742    XZZ     -24.6806    YZZ      -9.8796
       ZZZ       0.1345
    Hexadecapole Moments (Debye-Ang^3)
      XXXX   -2671.0071   XXXY      -5.9508   XXYY    -568.9225
      XYYY      -8.4459   YYYY    -803.7853   XXXZ       4.6204
      XXYZ      -1.1464   XYYZ      -1.3306   YYYZ      -1.1219
      XXZZ    -489.8882   XYZZ     -20.1678   YYZZ    -149.3577
      XZZZ      -0.8011   YZZZ      -0.0306   ZZZZ     -69.6128
 -----------------------------------------------------------------
Archival summary:
1\1\nia1977.scinet.local\SP\ProcedureUnspecified\6-31G*\3107\rhickman\MonFeb712:32:122022MonFeb712:32:122022\0\\#,ProcedureUnspecified,6-31G*,\\0,1\F\C,1,1.32527\C,2,1.3251,1,128.046\H,3,1.08026,2,115.14,1,179.992,0\F,2,1.33018,1,108.955,3,179.995,0\C,3,1.45478,2,128.336,1,0.00989387,0\C,6,1.39438,3,118.017,2,179.808,0\H,7,1.08042,6,118.93,3,0.0471765,0\C,7,1.39336,6,122.19,3,179.925,0\C,9,1.39518,7,118.404,6,0.205995,0\H,10,1.07712,9,121.767,7,179.598,0\C,10,1.37992,9,119.011,7,-0.13778,0\F,12,1.34882,10,118.509,9,179.95,0\C,12,1.38143,10,123.041,9,-0.00182455,0\H,14,1.07644,12,119.152,10,179.999,0\C,9,1.45878,7,118.901,6,-179.896,0\H,16,1.08281,9,114.441,7,-3.73009,0\C,16,1.32737,9,126.544,7,175.883,0\H,18,1.07617,16,122.954,9,-0.0890496,0\H,18,1.07625,16,121.18,9,-179.873,0\\\@

 Total job time:  25.56s(wall), 25.40s(cpu) 
 Mon Feb  7 12:32:12 2022

        *************************************************************
        *                                                           *
        *  Thank you very much for using Q-Chem.  Have a nice day.  *
        *                                                           *
        *************************************************************


