
Running Job 1 of 1 fragments/C061/conf-1/spe_input.inp
qchem fragments/C061/conf-1/spe_input.inp_270132.0 /gpfs/fs0/scratch/a/aspuru/rhickman/descriptor_computation/qchem270132/ 0
/scinet/niagara/software/commercial/qc52/exe/qcprog.exe_s fragments/C061/conf-1/spe_input.inp_270132.0 /gpfs/fs0/scratch/a/aspuru/rhickman/descriptor_computation/qchem270132/
                  Welcome to Q-Chem
     A Quantum Leap Into The Future Of Chemistry


 Q-Chem 5.2, Q-Chem, Inc., Pleasanton, CA (2019)

 License issued to: SRG Alan Aspuru-Guzik, University of Toronto

 Yihan Shao,  Zhengting Gan,  E. Epifanovsky,  A. T. B. Gilbert,  M. Wormit,  
 J. Kussmann,  A. W. Lange,  A. Behn,  Jia Deng,  Xintian Feng,  D. Ghosh,  
 M. Goldey,  P. R. Horn,  L. D. Jacobson,  I. Kaliman,  T. Kus,  A. Landau,  
 Jie Liu,  E. I. Proynov,  R. M. Richard,  R. P. Steele,  E. J. Sundstrom,  
 H. L. Woodcock III,  P. M. Zimmerman,  D. Zuev,  B. Albrecht,  E. Alguire,  
 S. A. Baeppler,  D. Barton,  Z. Benda,  Y. A. Bernard,  E. J. Berquist,  
 K. B. Bravaya,  H. Burton,  D. Casanova,  Chun-Min Chang,  Yunqing Chen,  
 A. Chien,  K. D. Closser,  M. P. Coons,  S. Coriani,  S. Dasgupta,  
 A. L. Dempwolff,  M. Diedenhofen,  Hainam Do,  R. G. Edgar,  Po-Tung Fang,  
 S. Faraji,  S. Fatehi,  Qingguo Feng,  K. D. Fenk,  J. Fosso-Tande,  
 J. Gayvert,  Qinghui Ge,  A. Ghysels,  G. Gidofalvi,  J. Gomes,  
 J. Gonthier,  A. Gunina,  D. Hait,  M. W. D. Hanson-Heine,  
 P. H. P. Harbach,  A. W. Hauser,  M. F. Herbst,  J. E. Herr,  
 E. G. Hohenstein,  Z. C. Holden,  Kerwin Hui,  B. C. Huynh,  T.-C. Jagau,  
 Hyunjun Ji,  B. Kaduk,  K. Khistyaev,  Jaehoon Kim,  P. Klunzinger,  K. Koh,  
 D. Kosenkov,  L. Koulias,  T. Kowalczyk,  C. M. Krauter,  A. Kunitsa,  
 Ka Un Lao,  A. Laurent,  K. V. Lawler,  Joonho Lee,  D. Lefrancois,  
 S. Lehtola,  D. S. Levine,  Yi-Pei Li,  You-Sheng Lin,  Fenglai Liu,  
 E. Livshits,  A. Luenser,  P. Manohar,  E. Mansoor,  S. F. Manzer,  
 Shan-Ping Mao,  Yuezhi Mao,  N. Mardirossian,  A. V. Marenich,  
 T. Markovich,  L. A. Martinez-Martinez,  S. A. Maurer,  N. J. Mayhall,  
 S. C. McKenzie,  J.-M. Mewes,  P. Morgante,  A. F. Morrison,  
 J. W. Mullinax,  K. Nanda,  T. S. Nguyen-Beck,  R. Olivares-Amaya,  
 J. A. Parkhill,  Zheng Pei,  T. M. Perrine,  F. Plasser,  P. Pokhilko,  
 S. Prager,  A. Prociuk,  E. Ramos,  D. R. Rehn,  F. Rob,  M. Scheurer,  
 M. Schneider,  N. Sergueev,  S. M. Sharada,  S. Sharma,  D. W. Small,  
 T. Stauch,  T. Stein,  Yu-Chuan Su,  A. J. W. Thom,  A. Tkatchenko,  
 T. Tsuchimochi,  N. M. Tubman,  L. Vogt,  M. L. Vidal,  O. Vydrov,  
 M. A. Watson,  J. Wenzel,  M. de Wergifosse,  T. A. Wesolowski,  A. White,  
 J. Witte,  A. Yamada,  Jun Yang,  K. Yao,  S. Yeganeh,  S. R. Yost,  
 Zhi-Qiang You,  A. Zech,  Igor Ying Zhang,  Xing Zhang,  Yan Zhao,  
 Ying Zhu,  B. R. Brooks,  G. K. L. Chan,  C. J. Cramer,  M. S. Gordon,  
 W. J. Hehre,  A. Klamt,  M. W. Schmidt,  C. D. Sherrill,  D. G. Truhlar,  
 A. Aspuru-Guzik,  R. Baer,  A. T. Bell,  N. A. Besley,  Jeng-Da Chai,  
 A. E. DePrince, III,  R. A. DiStasio Jr.,  A. Dreuw,  B. D. Dunietz,  
 T. R. Furlani,  Chao-Ping Hsu,  Yousung Jung,  Jing Kong,  D. S. Lambrecht,  
 WanZhen Liang,  C. Ochsenfeld,  V. A. Rassolov,  L. V. Slipchenko,  
 J. E. Subotnik,  T. Van Voorhis,  J. M. Herbert,  A. I. Krylov,  
 P. M. W. Gill,  M. Head-Gordon

 Contributors to earlier versions of Q-Chem not listed above: 
 R. D. Adamson,  B. Austin,  J. Baker,  G. J. O. Beran,  K. Brandhorst,  
 S. T. Brown,  E. F. C. Byrd,  A. K. Chakraborty,  C.-L. Cheng,  
 Siu Hung Chien,  D. M. Chipman,  D. L. Crittenden,  H. Dachsel,  
 R. J. Doerksen,  A. D. Dutoi,  L. Fusti-Molnar,  W. A. Goddard III,  
 A. Golubeva-Zadorozhnaya,  S. R. Gwaltney,  G. Hawkins,  A. Heyden,  
 S. Hirata,  G. Kedziora,  F. J. Keil,  C. Kelley,  Jihan Kim,  R. A. King,  
 R. Z. Khaliullin,  P. P. Korambath,  W. Kurlancheek,  A. M. Lee,  M. S. Lee,  
 S. V. Levchenko,  Ching Yeh Lin,  D. Liotard,  R. C. Lochan,  I. Lotan,  
 P. E. Maslen,  N. Nair,  D. P. O'Neill,  D. Neuhauser,  E. Neuscamman,  
 C. M. Oana,  R. Olson,  B. Peters,  R. Peverati,  P. A. Pieniazek,  
 Y. M. Rhee,  J. Ritchie,  M. A. Rohrdanz,  E. Rosta,  N. J. Russ,  
 H. F. Schaefer III,  N. E. Schultz,  N. Shenvi,  A. C. Simmonett,  A. Sodt,  
 D. Stuck,  K. S. Thanthiriwatte,  V. Vanovschi,  Tao Wang,  A. Warshel,  
 C. F. Williams,  Q. Wu,  X. Xu,  W. Zhang

 Please cite Q-Chem as follows:
 Y. Shao et al., Mol. Phys. 113, 184-215 (2015)
 DOI: 10.1080/00268976.2014.952696

 Q-Chem 5.2.1 for Intel X86 EM64T Linux

 Parts of Q-Chem use Armadillo 8.300.2 (Tropical Shenanigans).
 http://arma.sourceforge.net/

 Q-Chem begins on Mon Feb  7 09:47:44 2022  

Host: 
0

     Scratch files written to /gpfs/fs0/scratch/a/aspuru/rhickman/descriptor_computation/qchem270132//
 Jul1719 |scratch|qcdevops|jenkins|workspace|build_RNUM -1
Processing $rem in /scinet/niagara/software/commercial/qc52/config/preferences:
	 MEM_TOTAL  4000 
NAlpha2: 96
NElect   96
Mult     1

Checking the input file for inconsistencies... 	...done.

--------------------------------------------------------------
User input:
--------------------------------------------------------------
$molecule
0 1
C         3.77754649550000    1.51887308600000    0.27785930750000
C         2.89536092890000    0.73866193540000   -0.33187499600000
C         1.45481054120000    0.76638619900000   -0.08242269730000
C         0.81980482770000    1.96782444360000    0.14437240390000
C        -0.56314327430000    2.03906821480000    0.30063818720000
C        -1.35541681660000    0.91465053340000    0.21917270600000
C        -2.80797958510000    1.09290032720000    0.26514803790000
C        -3.67654567020000    0.52920950420000   -0.56282285170000
C        -0.73160575910000   -0.35692078930000    0.07484865940000
C        -1.46392961100000   -1.56075199470000    0.15159538400000
C        -0.85055869660000   -2.77586957700000    0.02888879370000
C         0.53466166250000   -2.84675220700000   -0.16379420310000
C         1.27988633170000   -1.70178446440000   -0.20423543700000
C         0.68052024990000   -0.42929666390000   -0.08716131320000
H         4.82761550570000    1.47821838780000    0.04323863270000
H         3.48778985380000    2.21389356130000    1.04836701660000
H         3.23667865510000    0.03502477210000   -1.08018959110000
H         1.39787456520000    2.88005432630000    0.15948262760000
H        -1.02749341070000    3.00533568160000    0.44133717340000
H        -3.15832431250000    1.80797839970000    1.00061333650000
H        -3.36572009420000   -0.14071766810000   -1.34729835260000
H        -4.73166356920000    0.73716969590000   -0.50123988140000
H        -2.52531572300000   -1.51183641580000    0.33991253690000
H        -1.42817698110000   -3.68640133120000    0.09516860020000
H         1.01298383890000   -3.81110039800000   -0.25555957550000
H         2.35226440030000   -1.77063196250000   -0.30386437840000
$end

$rem
BASIS = 6-31G*
GUI = 2
METHOD = B3LYP
PRINT_ORBITALS false
MOLDEN_FORMAT false
--------------------------------------------------------------
 ----------------------------------------------------------------
             Standard Nuclear Orientation (Angstroms)
    I     Atom           X                Y                Z
 ----------------------------------------------------------------
    1      C      -4.0010244433    -0.7710301519     0.1730075108
    2      C      -2.9764133517    -0.1395347175    -0.3838967552
    3      C      -1.5718915625    -0.4593277548    -0.1324380892
    4      C      -1.1828531699    -1.7721288402     0.0202857427
    5      C       0.1581850480    -2.1177587516     0.1758382586
    6      C       1.1527408321    -1.1641137905     0.1675200090
    7      C       2.5431974816    -1.6212107182     0.2064817996
    8      C       3.5161412746    -1.1858156597    -0.5818719920
    9      C       0.7869176330     0.2101801392     0.1015436769
   10      C       1.7355230822     1.2434797298     0.2559376947
   11      C       1.3687812959     2.5591528779     0.2080194901
   12      C       0.0259896977     2.9070914949     0.0160924976
   13      C      -0.9245170213     1.9317078684    -0.0984072440
   14      C      -0.5824488311     0.5628884055    -0.0597564461
   15      H      -5.0201143370    -0.5146727353    -0.0616864502
   16      H      -3.8616845440    -1.5545895425     0.8991711124
   17      H      -3.1650271966     0.6610367391    -1.0875216136
   18      H      -1.9254798430    -2.5551556768    -0.0236562289
   19      H       0.4262065014    -3.1621158796     0.2569108247
   20      H       2.7386651694    -2.4339404648     0.8965905048
   21      H       3.3515181283    -0.4219216691    -1.3236145062
   22      H       4.5106549624    -1.5964296347    -0.5303708008
   23      H       2.7648259098     0.9796813093     0.4439340913
   24      H       2.1094193604     3.3356311634     0.3330822751
   25      H      -0.2568439713     3.9492699500    -0.0163051085
   26      H      -1.9621079309     2.2117256546    -0.1966710197
 ----------------------------------------------------------------
 Molecular Point Group                 C1    NOp =  1
 Largest Abelian Subgroup              C1    NOp =  1
 Nuclear Repulsion Energy =         792.39271812 hartrees
 There are       48 alpha and       48 beta electrons
 Requested basis set is 6-31G(d)
 There are 80 shells and 234 basis functions

 Total QAlloc Memory Limit   4000 MB
 Mega-Array Size       188 MB
 MEM_STATIC part       192 MB
 A cutoff of  1.0D-08 yielded   2193 shell pairs
 There are     20844 function pairs
 Smallest overlap matrix eigenvalue = 2.30E-04

 Scale SEOQF with 1.000000e-01/1.000000e-01/1.000000e+00

 Standard Electronic Orientation quadrupole field applied
 Nucleus-field energy     =     0.0000000244 hartrees
 Guess from superposition of atomic densities
 Warning:  Energy on first SCF cycle will be non-variational
 SAD guess density has 96.000000 electrons

 -----------------------------------------------------------------------
  General SCF calculation program by
  Eric Jon Sundstrom, Paul Horn, Yuezhi Mao, Dmitri Zuev, Alec White,
  David Stuck, Shaama M.S., Shane Yost, Joonho Lee, David Small,
  Daniel Levine, Susi Lehtola, Hugh Burton, Evgeny Epifanovsky,
  Bang C. Huynh
 -----------------------------------------------------------------------
 Exchange:     0.2000 Hartree-Fock + 0.0800 Slater + 0.7200 B88
 Correlation:  0.1900 VWN1RPA + 0.8100 LYP
 Using SG-1 standard quadrature grid
 A restricted SCF calculation will be
 performed using DIIS
 SCF converges when DIIS error is below 1.0e-05
 ---------------------------------------
  Cycle       Energy         DIIS error
 ---------------------------------------
    1    -544.1201486909      5.35e-02  
    2    -540.4830753357      5.03e-03  
    3    -540.5228490262      4.58e-03  
    4    -540.6774595115      4.94e-04  
    5    -540.6779032631      4.04e-04  
    6    -540.6791694000      6.38e-05  
    7    -540.6791949184      2.85e-05  
    8    -540.6792004022      5.41e-06  Convergence criterion met
 ---------------------------------------
 SCF time:   CPU 40.75s  wall 41.00s 
 SCF   energy in the final basis set =     -540.6792004022
 Total energy in the final basis set =     -540.6792004022
 
 --------------------------------------------------------------
 
                    Orbital Energies (a.u.)
 --------------------------------------------------------------
 
 Alpha MOs
 -- Occupied --
-10.1944 -10.1937 -10.1932 -10.1927 -10.1910 -10.1889 -10.1847 -10.1846
-10.1840 -10.1832 -10.1831 -10.1809 -10.1805 -10.1792  -0.8797  -0.8274
 -0.8136  -0.7657  -0.7460  -0.7409  -0.7063  -0.6371  -0.6166  -0.6065
 -0.5764  -0.5489  -0.5076  -0.5058  -0.4924  -0.4705  -0.4482  -0.4430
 -0.4309  -0.4192  -0.4087  -0.4015  -0.3902  -0.3849  -0.3651  -0.3580
 -0.3365  -0.3301  -0.3201  -0.3046  -0.2656  -0.2567  -0.2431  -0.1992
 -- Virtual --
 -0.0471  -0.0043   0.0026   0.0185   0.0727   0.1025   0.1077   0.1166
  0.1290   0.1364   0.1468   0.1605   0.1622   0.1796   0.1922   0.2016
  0.2059   0.2175   0.2276   0.2713   0.2793   0.2961   0.3109   0.3223
  0.3274   0.3491   0.3559   0.3585   0.3852   0.4155   0.4701   0.4841
  0.4965   0.5113   0.5203   0.5394   0.5423   0.5531   0.5574   0.5658
  0.5730   0.5782   0.5895   0.5940   0.6077   0.6093   0.6195   0.6226
  0.6236   0.6298   0.6368   0.6479   0.6551   0.6761   0.6875   0.6944
  0.7042   0.7138   0.7288   0.7453   0.7750   0.8187   0.8373   0.8405
  0.8463   0.8578   0.8587   0.8623   0.8697   0.8815   0.8875   0.9148
  0.9230   0.9377   0.9553   0.9580   0.9681   0.9749   0.9975   1.0011
  1.0193   1.0343   1.0526   1.0820   1.1078   1.1173   1.1466   1.1516
  1.1752   1.1778   1.2030   1.2142   1.2536   1.2736   1.2816   1.2976
  1.3352   1.3872   1.4273   1.4284   1.4389   1.4647   1.4757   1.5047
  1.5096   1.5153   1.5341   1.5430   1.5933   1.6047   1.6577   1.6816
  1.7056   1.7621   1.7701   1.7867   1.8049   1.8250   1.8614   1.8890
  1.9190   1.9280   1.9358   1.9389   1.9453   1.9795   2.0196   2.0299
  2.0373   2.0607   2.0699   2.1034   2.1300   2.1500   2.1703   2.1738
  2.2135   2.2290   2.2392   2.2643   2.2726   2.2805   2.3070   2.3285
  2.3412   2.3688   2.3692   2.3888   2.4088   2.4592   2.5000   2.5395
  2.6073   2.6249   2.6309   2.6697   2.6772   2.6801   2.7417   2.7573
  2.7661   2.7898   2.8028   2.8215   2.8840   2.9598   2.9716   3.0403
  3.0725   3.1924   3.4266   3.5199   4.1005   4.1093   4.1236   4.1313
  4.1370   4.1560   4.1832   4.2499   4.3322   4.3372   4.3567   4.5212
  4.5552   4.8624
 --------------------------------------------------------------
 
          Ground-State Mulliken Net Atomic Charges

     Atom                 Charge (a.u.)
  ----------------------------------------
      1 C                    -0.337351
      2 C                    -0.131375
      3 C                     0.102903
      4 C                    -0.195581
      5 C                    -0.193394
      6 C                     0.099236
      7 C                    -0.143420
      8 C                    -0.333621
      9 C                     0.078917
     10 C                    -0.200715
     11 C                    -0.134740
     12 C                    -0.129210
     13 C                    -0.197851
     14 C                     0.072914
     15 H                     0.141901
     16 H                     0.144639
     17 H                     0.140003
     18 H                     0.130027
     19 H                     0.126558
     20 H                     0.137874
     21 H                     0.155131
     22 H                     0.143326
     23 H                     0.141330
     24 H                     0.126601
     25 H                     0.126842
     26 H                     0.129056
  ----------------------------------------
  Sum of atomic charges =     0.000000

 -----------------------------------------------------------------
                    Cartesian Multipole Moments
 -----------------------------------------------------------------
    Charge (ESU x 10^10)
                 0.0000
    Dipole Moment (Debye)
         X       0.1561      Y      -0.0626      Z      -0.0119
       Tot       0.1686
    Quadrupole Moments (Debye-Ang)
        XX     -73.1589     XY      -0.5062     YY     -73.9321
        XZ       0.7641     YZ      -2.4835     ZZ     -84.6383
    Octopole Moments (Debye-Ang^2)
       XXX       0.7740    XXY      -2.1334    XYY       1.8462
       YYY       6.5643    XXZ      -2.6673    XYZ       2.7881
       YYZ       6.1261    XZZ       0.9597    YZZ      -1.4815
       ZZZ      -1.0932
    Hexadecapole Moments (Debye-Ang^3)
      XXXX   -2098.4512   XXXY     -15.5857   XXYY    -581.2582
      XYYY       7.8885   YYYY   -1287.1005   XXXZ      -5.7162
      XXYZ     -21.2351   XYYZ      10.1161   YYYZ     -12.6451
      XXZZ    -410.5476   XYZZ      -2.2076   YYZZ    -273.4111
      XZZZ      -1.4800   YZZZ      -4.4420   ZZZZ    -134.9787
 -----------------------------------------------------------------
Archival summary:
1\1\nia0231.scinet.local\SP\ProcedureUnspecified\6-31G*\1412\rhickman\MonFeb709:48:252022MonFeb709:48:252022\0\\#,ProcedureUnspecified,6-31G*,\\0,1\C\C,1,1.41117\H,2,1.07907,1,118.768\C,2,1.36667,1,121.378,3,-178.206,0\H,4,1.08033,2,120.258,1,179.713,0\C,4,1.40035,2,120.087,1,0.663367,0\H,6,1.08036,4,119.658,2,179.731,0\C,6,1.36673,4,120.069,2,1.24009,0\H,8,1.07919,6,119.413,4,176.966,0\C,8,1.41144,6,121.417,4,-1.53704,0\C,1,1.42368,2,121.94,3,-0.922586,0\C,11,1.37791,1,118.875,2,171.98,0\H,12,1.08124,11,119.342,1,-178.103,0\C,12,1.39357,11,121.483,1,4.89219,0\H,14,1.08007,12,119.103,11,176.544,0\C,14,1.37772,12,121.362,11,-0.788798,0\C,16,1.46225,14,119.913,12,175.859,0\H,17,1.08239,16,116.163,14,-141.183,0\C,17,1.32618,16,124.454,14,37.865,0\H,19,1.07673,17,121.758,16,-178.506,0\H,19,1.07736,17,121.968,16,2.74247,0\C,11,1.46418,1,123.135,2,-9.00252,0\H,22,1.08397,11,114.977,1,138.532,0\C,22,1.32578,11,125.35,1,-46.2565,0\H,24,1.07718,22,121.596,11,-177.235,0\H,24,1.07741,22,122.011,11,1.22257,0\\\@

 Total job time:  41.07s(wall), 40.94s(cpu) 
 Mon Feb  7 09:48:25 2022

        *************************************************************
        *                                                           *
        *  Thank you very much for using Q-Chem.  Have a nice day.  *
        *                                                           *
        *************************************************************


