20
 energy: -27.549408387701 gnorm: 0.000026654371 xtb: 6.4.1 (23d549d)
C         3.15213297720000   -0.35033576210000   -0.00596089060000
C         1.92720832950000   -0.81440716150000   -0.23633019070000
C         0.71788511500000   -0.05344143720000   -0.07625409990000
S         0.77369980510000    1.67909277940000    0.08608791440000
C        -0.94241609120000    1.76970626580000    0.09183250790000
C        -1.53784887390000    0.55592585060000   -0.03068939240000
C        -3.01589127280000    0.34560641280000   -0.04633600840000
C        -0.58524271140000   -0.50537207270000   -0.11676571960000
C        -0.99203044430000   -1.89831834260000   -0.21520830590000
C        -0.39870487280000   -2.91695738230000    0.39357382360000
H         4.02551015140000   -0.95848323850000   -0.16163899070000
H         3.31586638310000    0.65369130850000    0.34983902440000
H         1.78365166510000   -1.82941240360000   -0.58386936670000
H        -1.41468027030000    2.72772595320000    0.18791818580000
H        -3.53434464680000    1.29045481170000    0.09533009230000
H        -3.30985027100000   -0.34064012190000    0.74688067850000
H        -3.32965768140000   -0.08319274880000   -0.99808128160000
H        -1.87748948230000   -2.07493716860000   -0.81389472590000
H         0.44798006980000   -2.77947795130000    1.04472067380000
H        -0.75774256910000   -3.92594614830000    0.27997727210000
