
Running Job 1 of 1 fragments/A009/conf-1/spe_input.inp
qchem fragments/A009/conf-1/spe_input.inp_244142.0 /gpfs/fs0/scratch/a/aspuru/rhickman/descriptor_computation/qchem244142/ 0
/scinet/niagara/software/commercial/qc52/exe/qcprog.exe_s fragments/A009/conf-1/spe_input.inp_244142.0 /gpfs/fs0/scratch/a/aspuru/rhickman/descriptor_computation/qchem244142/
                  Welcome to Q-Chem
     A Quantum Leap Into The Future Of Chemistry


 Q-Chem 5.2, Q-Chem, Inc., Pleasanton, CA (2019)

 License issued to: SRG Alan Aspuru-Guzik, University of Toronto

 Yihan Shao,  Zhengting Gan,  E. Epifanovsky,  A. T. B. Gilbert,  M. Wormit,  
 J. Kussmann,  A. W. Lange,  A. Behn,  Jia Deng,  Xintian Feng,  D. Ghosh,  
 M. Goldey,  P. R. Horn,  L. D. Jacobson,  I. Kaliman,  T. Kus,  A. Landau,  
 Jie Liu,  E. I. Proynov,  R. M. Richard,  R. P. Steele,  E. J. Sundstrom,  
 H. L. Woodcock III,  P. M. Zimmerman,  D. Zuev,  B. Albrecht,  E. Alguire,  
 S. A. Baeppler,  D. Barton,  Z. Benda,  Y. A. Bernard,  E. J. Berquist,  
 K. B. Bravaya,  H. Burton,  D. Casanova,  Chun-Min Chang,  Yunqing Chen,  
 A. Chien,  K. D. Closser,  M. P. Coons,  S. Coriani,  S. Dasgupta,  
 A. L. Dempwolff,  M. Diedenhofen,  Hainam Do,  R. G. Edgar,  Po-Tung Fang,  
 S. Faraji,  S. Fatehi,  Qingguo Feng,  K. D. Fenk,  J. Fosso-Tande,  
 J. Gayvert,  Qinghui Ge,  A. Ghysels,  G. Gidofalvi,  J. Gomes,  
 J. Gonthier,  A. Gunina,  D. Hait,  M. W. D. Hanson-Heine,  
 P. H. P. Harbach,  A. W. Hauser,  M. F. Herbst,  J. E. Herr,  
 E. G. Hohenstein,  Z. C. Holden,  Kerwin Hui,  B. C. Huynh,  T.-C. Jagau,  
 Hyunjun Ji,  B. Kaduk,  K. Khistyaev,  Jaehoon Kim,  P. Klunzinger,  K. Koh,  
 D. Kosenkov,  L. Koulias,  T. Kowalczyk,  C. M. Krauter,  A. Kunitsa,  
 Ka Un Lao,  A. Laurent,  K. V. Lawler,  Joonho Lee,  D. Lefrancois,  
 S. Lehtola,  D. S. Levine,  Yi-Pei Li,  You-Sheng Lin,  Fenglai Liu,  
 E. Livshits,  A. Luenser,  P. Manohar,  E. Mansoor,  S. F. Manzer,  
 Shan-Ping Mao,  Yuezhi Mao,  N. Mardirossian,  A. V. Marenich,  
 T. Markovich,  L. A. Martinez-Martinez,  S. A. Maurer,  N. J. Mayhall,  
 S. C. McKenzie,  J.-M. Mewes,  P. Morgante,  A. F. Morrison,  
 J. W. Mullinax,  K. Nanda,  T. S. Nguyen-Beck,  R. Olivares-Amaya,  
 J. A. Parkhill,  Zheng Pei,  T. M. Perrine,  F. Plasser,  P. Pokhilko,  
 S. Prager,  A. Prociuk,  E. Ramos,  D. R. Rehn,  F. Rob,  M. Scheurer,  
 M. Schneider,  N. Sergueev,  S. M. Sharada,  S. Sharma,  D. W. Small,  
 T. Stauch,  T. Stein,  Yu-Chuan Su,  A. J. W. Thom,  A. Tkatchenko,  
 T. Tsuchimochi,  N. M. Tubman,  L. Vogt,  M. L. Vidal,  O. Vydrov,  
 M. A. Watson,  J. Wenzel,  M. de Wergifosse,  T. A. Wesolowski,  A. White,  
 J. Witte,  A. Yamada,  Jun Yang,  K. Yao,  S. Yeganeh,  S. R. Yost,  
 Zhi-Qiang You,  A. Zech,  Igor Ying Zhang,  Xing Zhang,  Yan Zhao,  
 Ying Zhu,  B. R. Brooks,  G. K. L. Chan,  C. J. Cramer,  M. S. Gordon,  
 W. J. Hehre,  A. Klamt,  M. W. Schmidt,  C. D. Sherrill,  D. G. Truhlar,  
 A. Aspuru-Guzik,  R. Baer,  A. T. Bell,  N. A. Besley,  Jeng-Da Chai,  
 A. E. DePrince, III,  R. A. DiStasio Jr.,  A. Dreuw,  B. D. Dunietz,  
 T. R. Furlani,  Chao-Ping Hsu,  Yousung Jung,  Jing Kong,  D. S. Lambrecht,  
 WanZhen Liang,  C. Ochsenfeld,  V. A. Rassolov,  L. V. Slipchenko,  
 J. E. Subotnik,  T. Van Voorhis,  J. M. Herbert,  A. I. Krylov,  
 P. M. W. Gill,  M. Head-Gordon

 Contributors to earlier versions of Q-Chem not listed above: 
 R. D. Adamson,  B. Austin,  J. Baker,  G. J. O. Beran,  K. Brandhorst,  
 S. T. Brown,  E. F. C. Byrd,  A. K. Chakraborty,  C.-L. Cheng,  
 Siu Hung Chien,  D. M. Chipman,  D. L. Crittenden,  H. Dachsel,  
 R. J. Doerksen,  A. D. Dutoi,  L. Fusti-Molnar,  W. A. Goddard III,  
 A. Golubeva-Zadorozhnaya,  S. R. Gwaltney,  G. Hawkins,  A. Heyden,  
 S. Hirata,  G. Kedziora,  F. J. Keil,  C. Kelley,  Jihan Kim,  R. A. King,  
 R. Z. Khaliullin,  P. P. Korambath,  W. Kurlancheek,  A. M. Lee,  M. S. Lee,  
 S. V. Levchenko,  Ching Yeh Lin,  D. Liotard,  R. C. Lochan,  I. Lotan,  
 P. E. Maslen,  N. Nair,  D. P. O'Neill,  D. Neuhauser,  E. Neuscamman,  
 C. M. Oana,  R. Olson,  B. Peters,  R. Peverati,  P. A. Pieniazek,  
 Y. M. Rhee,  J. Ritchie,  M. A. Rohrdanz,  E. Rosta,  N. J. Russ,  
 H. F. Schaefer III,  N. E. Schultz,  N. Shenvi,  A. C. Simmonett,  A. Sodt,  
 D. Stuck,  K. S. Thanthiriwatte,  V. Vanovschi,  Tao Wang,  A. Warshel,  
 C. F. Williams,  Q. Wu,  X. Xu,  W. Zhang

 Please cite Q-Chem as follows:
 Y. Shao et al., Mol. Phys. 113, 184-215 (2015)
 DOI: 10.1080/00268976.2014.952696

 Q-Chem 5.2.1 for Intel X86 EM64T Linux

 Parts of Q-Chem use Armadillo 8.300.2 (Tropical Shenanigans).
 http://arma.sourceforge.net/

 Q-Chem begins on Mon Feb  7 08:09:42 2022  

Host: 
0

     Scratch files written to /gpfs/fs0/scratch/a/aspuru/rhickman/descriptor_computation/qchem244142//
 Jul1719 |scratch|qcdevops|jenkins|workspace|build_RNUM -1
Processing $rem in /scinet/niagara/software/commercial/qc52/config/preferences:
	 MEM_TOTAL  4000 
NAlpha2: 160
NElect   160
Mult     1

Checking the input file for inconsistencies... 	...done.

--------------------------------------------------------------
User input:
--------------------------------------------------------------
$molecule
0 1
F        -5.31964550810000    1.11264692360000   -1.13575719920000
C        -4.09255347020000    0.71532741940000   -0.79801640110000
F        -3.24482168670000    1.71226800720000   -1.02232398310000
C        -3.83205393230000   -0.49168928610000   -0.31937925520000
C        -2.55221070130000   -1.04895559120000    0.09158052220000
C        -1.34803622140000   -0.36669440140000   -0.05290640890000
C        -0.14802748400000   -0.93962480710000    0.36442073800000
N         1.04847939790000   -0.23767126960000    0.22625602600000
C         2.23921522730000   -0.91841306250000   -0.05914452550000
C         2.24290745590000   -2.00611034140000   -0.93173624700000
C         3.42104603450000   -2.67249782010000   -1.20757783690000
C         4.61124670520000   -2.26303085770000   -0.62909656580000
C         4.61385437400000   -1.17899106640000    0.23332456070000
C         3.43956744350000   -0.51138213920000    0.52208423420000
C         1.06805805940000    1.15812238860000    0.36579940440000
C         0.28745819650000    1.78358797810000    1.33675663230000
C         0.31062498670000    3.15847672890000    1.46735468650000
C         1.11571811330000    3.92793240360000    0.64372971460000
C         1.89810102140000    3.31026903000000   -0.31789730030000
C         1.87480975570000    1.93657836870000   -0.46231725140000
C        -0.16053171060000   -2.21940579720000    0.92376897750000
C        -1.35290393480000   -2.90436151880000    1.05349526000000
C        -2.54285689050000   -2.33147617510000    0.64616027710000
H        -4.69219279290000   -1.13755469480000   -0.21549267300000
H        -1.32366540800000    0.61534455470000   -0.49576477000000
H         1.31818554850000   -2.31996277430000   -1.39368202350000
H         3.41054167810000   -3.51214077550000   -1.88695465790000
H         5.53025464750000   -2.78436056200000   -0.84971774290000
H         5.53649777670000   -0.85486811960000    0.69184773930000
H         3.44218219250000    0.32885841510000    1.20087387140000
H        -0.33357072070000    1.18457948900000    1.98680510720000
H        -0.29879313800000    3.63129147920000    2.22323720150000
H         1.13280790670000    5.00183544770000    0.75035204540000
H         2.52519716230000    3.90275399550000   -0.96767357190000
H         2.47838558110000    1.45689666530000   -1.21893829790000
H         0.76443358550000   -2.66528793490000    1.25706879670000
H        -1.35399729860000   -3.89305354240000    1.48770481910000
H        -3.46991781250000   -2.87270187860000    0.75861695810000
$end

$rem
BASIS = 6-31G*
GUI = 2
METHOD = B3LYP
PRINT_ORBITALS false
MOLDEN_FORMAT false
--------------------------------------------------------------
 ----------------------------------------------------------------
             Standard Nuclear Orientation (Angstroms)
    I     Atom           X                Y                Z
 ----------------------------------------------------------------
    1      F       5.5424231765    -0.0512276551    -0.9797779022
    2      C       4.2525028594     0.0929958725    -0.6748325725
    3      F       3.6136958503    -1.0296507251    -0.9821497143
    4      C       3.7557673987     1.2027313735    -0.1498717606
    5      C       2.3818080913     1.4900979970     0.2336495747
    6      C       1.3316479620     0.6058724948     0.0062689539
    7      C       0.0329421901     0.9230262743     0.4002346443
    8      N      -1.0062113903     0.0205486615     0.1785344643
    9      C      -2.2934277487     0.4839463844    -0.1232125752
   10      C      -2.4723791445     1.5986137376    -0.9417529866
   11      C      -3.7448503446     2.0497304746    -1.2341262061
   12      C      -4.8554663120     1.3958927907    -0.7262779346
   13      C      -4.6830579590     0.2842094614     0.0820257235
   14      C      -3.4145544829    -0.1695305122     0.3870709520
   15      C      -0.7690106223    -1.3603088227     0.2496963830
   16      C       0.0831948185    -1.8831398701     1.2211359696
   17      C       0.3132519463    -3.2436561965     1.2842285421
   18      C      -0.3069909961    -4.1021652474     0.3915606452
   19      C      -1.1597879695    -3.5878339428    -0.5710182893
   20      C      -1.3890556632    -2.2277080764    -0.6479571638
   21      C      -0.2119334231     2.1502109835     1.0206537081
   22      C       0.8266083612     3.0357108460     1.2329406033
   23      C       2.1151119704     2.7161901267     0.8485288434
   24      H       4.4762406203     1.9898403466     0.0208654912
   25      H       1.5054830549    -0.3377879286    -0.4840415004
   26      H      -1.6082892232     2.1030986190    -1.3490016433
   27      H      -3.8696933811     2.9129822186    -1.8712087295
   28      H      -5.8481666075     1.7495724378    -0.9597105649
   29      H      -5.5430775862    -0.2297795573     0.4854505218
   30      H      -3.2818344874    -1.0318767286     1.0238682536
   31      H       0.5601403216    -1.2163525148     1.9246761003
   32      H       0.9757465685    -3.6365165185     2.0412386201
   33      H      -0.1264579715    -5.1649106456     0.4454881546
   34      H      -1.6439186828    -4.2493578622    -1.2742257722
   35      H      -2.0470738870    -1.8269884571    -1.4051292218
   36      H      -1.2141448582     2.3982196125     1.3361286017
   37      H       0.6289520515     3.9820699211     1.7139681890
   38      H       2.9205769672     3.4125349559     1.0255704715
 ----------------------------------------------------------------
 Molecular Point Group                 C1    NOp =  1
 Largest Abelian Subgroup              C1    NOp =  1
 Nuclear Repulsion Energy =        1794.64666339 hartrees
 There are       80 alpha and       80 beta electrons
 Requested basis set is 6-31G(d)
 There are 122 shells and 375 basis functions

 Total QAlloc Memory Limit   4000 MB
 Mega-Array Size       188 MB
 MEM_STATIC part       192 MB
 A cutoff of  1.0D-08 yielded   3796 shell pairs
 There are     37972 function pairs
 Smallest overlap matrix eigenvalue = 3.75E-04

 Scale SEOQF with 1.000000e-02/1.000000e-01/1.000000e-01

 Standard Electronic Orientation quadrupole field applied
 Nucleus-field energy     =     0.0000000388 hartrees
 Guess from superposition of atomic densities
 Warning:  Energy on first SCF cycle will be non-variational
 SAD guess density has 160.000000 electrons

 -----------------------------------------------------------------------
  General SCF calculation program by
  Eric Jon Sundstrom, Paul Horn, Yuezhi Mao, Dmitri Zuev, Alec White,
  David Stuck, Shaama M.S., Shane Yost, Joonho Lee, David Small,
  Daniel Levine, Susi Lehtola, Hugh Burton, Evgeny Epifanovsky,
  Bang C. Huynh
 -----------------------------------------------------------------------
 Exchange:     0.2000 Hartree-Fock + 0.0800 Slater + 0.7200 B88
 Correlation:  0.1900 VWN1RPA + 0.8100 LYP
 Using SG-1 standard quadrature grid
 A restricted SCF calculation will be
 performed using DIIS
 SCF converges when DIIS error is below 1.0e-05
 ---------------------------------------
  Cycle       Energy         DIIS error
 ---------------------------------------
    1   -1031.4172928792      4.26e-02  
    2   -1025.2074383922      4.35e-03  
    3   -1024.9585764334      5.79e-03  
    4   -1025.5181529088      1.50e-03  
    5   -1025.5562754664      4.96e-04  
    6   -1025.5600920042      2.44e-04  
    7   -1025.5611938719      4.89e-05  
    8   -1025.5612290778      2.13e-05  
    9   -1025.5612371662      4.93e-06  Convergence criterion met
 ---------------------------------------
 SCF time:   CPU 120.91s  wall 122.00s 
 SCF   energy in the final basis set =    -1025.5612371662
 Total energy in the final basis set =    -1025.5612371662
 
 --------------------------------------------------------------
 
                    Orbital Energies (a.u.)
 --------------------------------------------------------------
 
 Alpha MOs
 -- Occupied --
-24.7421 -24.7319 -14.3647 -10.3547 -10.2274 -10.2254 -10.2248 -10.2045
-10.2009 -10.1882 -10.1864 -10.1863 -10.1857 -10.1857 -10.1834 -10.1833
-10.1831 -10.1830 -10.1828 -10.1827 -10.1817 -10.1812 -10.1807  -1.2831
 -1.2220  -0.9789  -0.8655  -0.8585  -0.8425  -0.8040  -0.7631  -0.7592
 -0.7447  -0.7447  -0.7362  -0.7093  -0.6467  -0.6334  -0.6265  -0.6059
 -0.6024  -0.6000  -0.5780  -0.5636  -0.5418  -0.5356  -0.5167  -0.5109
 -0.5021  -0.4843  -0.4802  -0.4652  -0.4548  -0.4472  -0.4386  -0.4381
 -0.4355  -0.4338  -0.4271  -0.4235  -0.4217  -0.4183  -0.4054  -0.3825
 -0.3733  -0.3712  -0.3687  -0.3593  -0.3563  -0.3516  -0.3424  -0.3406
 -0.3201  -0.2935  -0.2589  -0.2581  -0.2527  -0.2465  -0.2218  -0.1812
 -- Virtual --
 -0.0277  -0.0101  -0.0087   0.0001   0.0116   0.0371   0.0722   0.0879
  0.0966   0.1002   0.1244   0.1436   0.1464   0.1492   0.1566   0.1592
  0.1619   0.1646   0.1675   0.1725   0.1863   0.1882   0.1910   0.1937
  0.1956   0.1992   0.2097   0.2234   0.2651   0.2736   0.2900   0.2982
  0.3012   0.3097   0.3110   0.3132   0.3259   0.3331   0.3567   0.3645
  0.3907   0.3938   0.4109   0.4440   0.4596   0.4710   0.4793   0.4995
  0.5136   0.5191   0.5226   0.5266   0.5404   0.5434   0.5499   0.5558
  0.5599   0.5644   0.5697   0.5758   0.5835   0.5849   0.5870   0.5926
  0.5972   0.5988   0.6026   0.6052   0.6113   0.6134   0.6177   0.6178
  0.6197   0.6245   0.6276   0.6312   0.6368   0.6397   0.6419   0.6442
  0.6536   0.6795   0.6847   0.6907   0.7013   0.7112   0.7196   0.7785
  0.8029   0.8102   0.8120   0.8154   0.8232   0.8340   0.8385   0.8434
  0.8466   0.8474   0.8489   0.8509   0.8577   0.8701   0.8742   0.8821
  0.8922   0.8983   0.9101   0.9232   0.9261   0.9469   0.9629   0.9654
  0.9709   0.9884   0.9930   1.0078   1.0185   1.0211   1.0411   1.0481
  1.0627   1.0716   1.0958   1.1194   1.1244   1.1374   1.1538   1.1628
  1.1660   1.1701   1.1797   1.1897   1.1961   1.1995   1.2069   1.2168
  1.2258   1.2482   1.2662   1.2736   1.2903   1.3023   1.3104   1.3153
  1.3465   1.3712   1.4028   1.4054   1.4140   1.4298   1.4422   1.4451
  1.4500   1.4566   1.4617   1.4655   1.4742   1.4872   1.4924   1.4960
  1.4996   1.5022   1.5129   1.5146   1.5169   1.5224   1.5603   1.6068
  1.6483   1.7100   1.7196   1.7222   1.7418   1.7744   1.7820   1.7876
  1.7900   1.8040   1.8102   1.8384   1.8395   1.8444   1.8475   1.8541
  1.8825   1.8981   1.9001   1.9058   1.9210   1.9262   1.9359   1.9508
  1.9569   1.9637   1.9710   1.9795   1.9926   2.0002   2.0027   2.0096
  2.0319   2.0353   2.0589   2.0857   2.0954   2.1196   2.1311   2.1532
  2.1549   2.1589   2.1643   2.1713   2.1732   2.1775   2.1841   2.1971
  2.2153   2.2346   2.2535   2.2595   2.2647   2.2944   2.3077   2.3127
  2.3195   2.3287   2.3310   2.3397   2.3626   2.3660   2.4404   2.4431
  2.5060   2.5212   2.5244   2.5597   2.5683   2.5793   2.6091   2.6117
  2.6270   2.6350   2.6425   2.6724   2.6743   2.6900   2.6943   2.7242
  2.7377   2.7448   2.7610   2.7628   2.7702   2.7746   2.7782   2.8082
  2.8275   2.8427   2.8773   2.9114   2.9469   2.9536   3.0112   3.0293
  3.0622   3.1495   3.2506   3.2638   3.3350   3.4478   3.4740   3.4878
  4.0837   4.1062   4.1072   4.1111   4.1317   4.1337   4.1408   4.1828
  4.1903   4.2079   4.2689   4.3097   4.3399   4.3623   4.3868   4.4011
  4.4321   4.4888   4.7168   4.7226   4.7709   4.8264   5.2940
 --------------------------------------------------------------
 
          Ground-State Mulliken Net Atomic Charges

     Atom                 Charge (a.u.)
  ----------------------------------------
      1 F                    -0.250169
      2 C                     0.546372
      3 F                    -0.231894
      4 C                    -0.303610
      5 C                     0.197627
      6 C                    -0.258670
      7 C                     0.301940
      8 N                    -0.654151
      9 C                     0.280204
     10 C                    -0.166793
     11 C                    -0.138411
     12 C                    -0.128070
     13 C                    -0.138169
     14 C                    -0.166063
     15 C                     0.277834
     16 C                    -0.163663
     17 C                    -0.136809
     18 C                    -0.127100
     19 C                    -0.138111
     20 C                    -0.164598
     21 C                    -0.174274
     22 C                    -0.137886
     23 C                    -0.197215
     24 H                     0.159000
     25 H                     0.157551
     26 H                     0.146207
     27 H                     0.129749
     28 H                     0.124726
     29 H                     0.129909
     30 H                     0.146384
     31 H                     0.145371
     32 H                     0.130227
     33 H                     0.125088
     34 H                     0.130005
     35 H                     0.146191
     36 H                     0.147450
     37 H                     0.130825
     38 H                     0.122995
  ----------------------------------------
  Sum of atomic charges =     0.000000

 -----------------------------------------------------------------
                    Cartesian Multipole Moments
 -----------------------------------------------------------------
    Charge (ESU x 10^10)
                 0.0000
    Dipole Moment (Debye)
         X      -0.7524      Y       0.6127      Z       0.4099
       Tot       1.0533
    Quadrupole Moments (Debye-Ang)
        XX    -125.7901     XY       2.8855     YY    -119.6971
        XZ       4.0893     YZ      -0.5110     ZZ    -129.4840
    Octopole Moments (Debye-Ang^2)
       XXX      15.6694    XXY      19.8217    XYY      27.1566
       YYY     -17.0416    XXZ       1.6767    XYZ       1.8013
       YYZ      -1.6776    XZZ      22.8625    YZZ      -4.0344
       ZZZ     -17.5251
    Hexadecapole Moments (Debye-Ang^3)
      XXXX   -5897.8040   XXXY      16.1281   XXYY   -1490.3939
      XYYY     -16.0388   YYYY   -3046.0716   XXXZ      -3.8599
      XXYZ     -32.1137   XYYZ      46.2428   YYYZ      39.9594
      XXZZ   -1131.7012   XYZZ     -28.8417   YYZZ    -624.8485
      XZZZ     -73.5631   YZZZ      -0.0428   ZZZZ    -643.7431
 -----------------------------------------------------------------
Archival summary:
1\1\nia0005.scinet.local\SP\ProcedureUnspecified\6-31G*\212015\rhickman\MonFeb708:11:442022MonFeb708:11:442022\0\\#,ProcedureUnspecified,6-31G*,\\0,1\N\C,1,1.39408\C,2,1.39371,1,120.154\H,3,1.07755,2,118.57,1,1.03258,0\C,3,1.39154,2,120.827,1,-179.304,0\C,2,1.39673,1,120.58,3,-179.828,0\H,6,1.07956,2,119.631,1,0.370811,0\C,6,1.38121,2,119.982,1,-179.932,0\H,8,1.07984,6,119.518,2,-179.952,0\C,8,1.38207,6,120.666,2,-0.617554,0\H,10,1.07936,8,120.063,6,-179.559,0\C,1,1.40097,2,120.332,3,-145.748,0\C,12,1.3944,1,120.325,2,-142.306,0\H,13,1.08017,12,119.412,1,0.489039,0\C,13,1.38132,12,120.238,1,-179.619,0\H,15,1.08008,13,119.5,12,-179.873,0\C,15,1.38525,13,120.449,12,-0.375107,0\H,17,1.07937,15,120.24,13,-179.789,0\C,17,1.38524,15,119.533,13,0.279708,0\H,19,1.08012,17,120.053,15,179.546,0\C,19,1.38137,17,120.452,15,0.133734,0\H,21,1.08028,19,120.3,17,179.245,0\C,1,1.40289,2,120.205,3,33.9455,0\C,23,1.39378,1,120.31,2,-141.389,0\H,24,1.08022,23,119.444,1,0.557946,0\C,24,1.38146,23,120.2,1,-179.632,0\H,26,1.08005,24,119.497,23,-179.82,0\C,26,1.38505,24,120.431,23,-0.391847,0\H,28,1.07932,26,120.222,24,-179.694,0\C,28,1.38513,26,119.567,24,0.274537,0\H,30,1.07995,28,120.064,26,179.684,0\C,30,1.38127,28,120.429,26,0.172442,0\H,32,1.0803,30,120.309,28,179.378,0\C,5,1.45514,3,122.958,2,179.573,0\H,34,1.08064,5,116.361,3,176.281,0\C,34,1.32433,5,128.618,3,-4.35348,0\F,36,1.32772,34,128.303,5,0.159167,0\F,36,1.3333,34,122.969,5,-179.676,0\\\@

 Total job time:  121.67s(wall), 121.30s(cpu) 
 Mon Feb  7 08:11:44 2022

        *************************************************************
        *                                                           *
        *  Thank you very much for using Q-Chem.  Have a nice day.  *
        *                                                           *
        *************************************************************


