
Running Job 1 of 1 fragments/A011/conf-0/spe_input.inp
qchem fragments/A011/conf-0/spe_input.inp_327496.0 /gpfs/fs0/scratch/a/aspuru/rhickman/descriptor_computation/qchem327496/ 0
/scinet/niagara/software/commercial/qc52/exe/qcprog.exe_s fragments/A011/conf-0/spe_input.inp_327496.0 /gpfs/fs0/scratch/a/aspuru/rhickman/descriptor_computation/qchem327496/
                  Welcome to Q-Chem
     A Quantum Leap Into The Future Of Chemistry


 Q-Chem 5.2, Q-Chem, Inc., Pleasanton, CA (2019)

 License issued to: SRG Alan Aspuru-Guzik, University of Toronto

 Yihan Shao,  Zhengting Gan,  E. Epifanovsky,  A. T. B. Gilbert,  M. Wormit,  
 J. Kussmann,  A. W. Lange,  A. Behn,  Jia Deng,  Xintian Feng,  D. Ghosh,  
 M. Goldey,  P. R. Horn,  L. D. Jacobson,  I. Kaliman,  T. Kus,  A. Landau,  
 Jie Liu,  E. I. Proynov,  R. M. Richard,  R. P. Steele,  E. J. Sundstrom,  
 H. L. Woodcock III,  P. M. Zimmerman,  D. Zuev,  B. Albrecht,  E. Alguire,  
 S. A. Baeppler,  D. Barton,  Z. Benda,  Y. A. Bernard,  E. J. Berquist,  
 K. B. Bravaya,  H. Burton,  D. Casanova,  Chun-Min Chang,  Yunqing Chen,  
 A. Chien,  K. D. Closser,  M. P. Coons,  S. Coriani,  S. Dasgupta,  
 A. L. Dempwolff,  M. Diedenhofen,  Hainam Do,  R. G. Edgar,  Po-Tung Fang,  
 S. Faraji,  S. Fatehi,  Qingguo Feng,  K. D. Fenk,  J. Fosso-Tande,  
 J. Gayvert,  Qinghui Ge,  A. Ghysels,  G. Gidofalvi,  J. Gomes,  
 J. Gonthier,  A. Gunina,  D. Hait,  M. W. D. Hanson-Heine,  
 P. H. P. Harbach,  A. W. Hauser,  M. F. Herbst,  J. E. Herr,  
 E. G. Hohenstein,  Z. C. Holden,  Kerwin Hui,  B. C. Huynh,  T.-C. Jagau,  
 Hyunjun Ji,  B. Kaduk,  K. Khistyaev,  Jaehoon Kim,  P. Klunzinger,  K. Koh,  
 D. Kosenkov,  L. Koulias,  T. Kowalczyk,  C. M. Krauter,  A. Kunitsa,  
 Ka Un Lao,  A. Laurent,  K. V. Lawler,  Joonho Lee,  D. Lefrancois,  
 S. Lehtola,  D. S. Levine,  Yi-Pei Li,  You-Sheng Lin,  Fenglai Liu,  
 E. Livshits,  A. Luenser,  P. Manohar,  E. Mansoor,  S. F. Manzer,  
 Shan-Ping Mao,  Yuezhi Mao,  N. Mardirossian,  A. V. Marenich,  
 T. Markovich,  L. A. Martinez-Martinez,  S. A. Maurer,  N. J. Mayhall,  
 S. C. McKenzie,  J.-M. Mewes,  P. Morgante,  A. F. Morrison,  
 J. W. Mullinax,  K. Nanda,  T. S. Nguyen-Beck,  R. Olivares-Amaya,  
 J. A. Parkhill,  Zheng Pei,  T. M. Perrine,  F. Plasser,  P. Pokhilko,  
 S. Prager,  A. Prociuk,  E. Ramos,  D. R. Rehn,  F. Rob,  M. Scheurer,  
 M. Schneider,  N. Sergueev,  S. M. Sharada,  S. Sharma,  D. W. Small,  
 T. Stauch,  T. Stein,  Yu-Chuan Su,  A. J. W. Thom,  A. Tkatchenko,  
 T. Tsuchimochi,  N. M. Tubman,  L. Vogt,  M. L. Vidal,  O. Vydrov,  
 M. A. Watson,  J. Wenzel,  M. de Wergifosse,  T. A. Wesolowski,  A. White,  
 J. Witte,  A. Yamada,  Jun Yang,  K. Yao,  S. Yeganeh,  S. R. Yost,  
 Zhi-Qiang You,  A. Zech,  Igor Ying Zhang,  Xing Zhang,  Yan Zhao,  
 Ying Zhu,  B. R. Brooks,  G. K. L. Chan,  C. J. Cramer,  M. S. Gordon,  
 W. J. Hehre,  A. Klamt,  M. W. Schmidt,  C. D. Sherrill,  D. G. Truhlar,  
 A. Aspuru-Guzik,  R. Baer,  A. T. Bell,  N. A. Besley,  Jeng-Da Chai,  
 A. E. DePrince, III,  R. A. DiStasio Jr.,  A. Dreuw,  B. D. Dunietz,  
 T. R. Furlani,  Chao-Ping Hsu,  Yousung Jung,  Jing Kong,  D. S. Lambrecht,  
 WanZhen Liang,  C. Ochsenfeld,  V. A. Rassolov,  L. V. Slipchenko,  
 J. E. Subotnik,  T. Van Voorhis,  J. M. Herbert,  A. I. Krylov,  
 P. M. W. Gill,  M. Head-Gordon

 Contributors to earlier versions of Q-Chem not listed above: 
 R. D. Adamson,  B. Austin,  J. Baker,  G. J. O. Beran,  K. Brandhorst,  
 S. T. Brown,  E. F. C. Byrd,  A. K. Chakraborty,  C.-L. Cheng,  
 Siu Hung Chien,  D. M. Chipman,  D. L. Crittenden,  H. Dachsel,  
 R. J. Doerksen,  A. D. Dutoi,  L. Fusti-Molnar,  W. A. Goddard III,  
 A. Golubeva-Zadorozhnaya,  S. R. Gwaltney,  G. Hawkins,  A. Heyden,  
 S. Hirata,  G. Kedziora,  F. J. Keil,  C. Kelley,  Jihan Kim,  R. A. King,  
 R. Z. Khaliullin,  P. P. Korambath,  W. Kurlancheek,  A. M. Lee,  M. S. Lee,  
 S. V. Levchenko,  Ching Yeh Lin,  D. Liotard,  R. C. Lochan,  I. Lotan,  
 P. E. Maslen,  N. Nair,  D. P. O'Neill,  D. Neuhauser,  E. Neuscamman,  
 C. M. Oana,  R. Olson,  B. Peters,  R. Peverati,  P. A. Pieniazek,  
 Y. M. Rhee,  J. Ritchie,  M. A. Rohrdanz,  E. Rosta,  N. J. Russ,  
 H. F. Schaefer III,  N. E. Schultz,  N. Shenvi,  A. C. Simmonett,  A. Sodt,  
 D. Stuck,  K. S. Thanthiriwatte,  V. Vanovschi,  Tao Wang,  A. Warshel,  
 C. F. Williams,  Q. Wu,  X. Xu,  W. Zhang

 Please cite Q-Chem as follows:
 Y. Shao et al., Mol. Phys. 113, 184-215 (2015)
 DOI: 10.1080/00268976.2014.952696

 Q-Chem 5.2.1 for Intel X86 EM64T Linux

 Parts of Q-Chem use Armadillo 8.300.2 (Tropical Shenanigans).
 http://arma.sourceforge.net/

 Q-Chem begins on Tue Feb  8 14:45:15 2022  

Host: 
0

     Scratch files written to /gpfs/fs0/scratch/a/aspuru/rhickman/descriptor_computation/qchem327496//
 Jul1719 |scratch|qcdevops|jenkins|workspace|build_RNUM -1
Processing $rem in /scinet/niagara/software/commercial/qc52/config/preferences:
	 MEM_TOTAL  4000 
NAlpha2: 158
NElect   158
Mult     1

Checking the input file for inconsistencies... 	...done.

--------------------------------------------------------------
User input:
--------------------------------------------------------------
$molecule
0 1
F         5.64670477860000   -0.31048412640000    0.11600351480000
C         4.31380665730000   -0.29562710380000    0.06183911360000
F         3.90705933440000    0.96327818560000   -0.07282245650000
C         3.57476357070000   -1.39309346400000    0.12988097890000
C         2.12758573910000   -1.51718696100000    0.07896001430000
C         1.58848638470000   -2.81599295210000    0.05990222170000
C         0.23027599860000   -3.03697521960000    0.02391255040000
C         1.27969189260000   -0.41217251960000    0.05412667220000
C        -0.08566110850000   -0.63364886970000   -0.00475639240000
C        -0.62530264560000   -1.94249116690000   -0.00593868310000
C        -2.05101382900000   -1.79624732080000   -0.02615334120000
C        -3.10510976220000   -2.70139793130000   -0.05262494370000
C        -4.39461822910000   -2.21224231220000   -0.09125010460000
C        -4.64050246240000   -0.84043665350000   -0.11822026230000
C        -3.61000340700000    0.07907828830000   -0.09238664280000
C        -2.31099889770000   -0.40554698910000   -0.03009969630000
N        -1.11530834390000    0.28326766030000   -0.01725448800000
C        -0.97069266510000    1.67989693790000   -0.01238105650000
C        -0.13629252060000    2.29964862580000   -0.93745051950000
C         0.00804106150000    3.67460403660000   -0.92256085200000
C        -0.68348510420000    4.43971477050000    0.00176064530000
C        -1.51887026070000    3.82415625100000    0.91899026140000
C        -1.66084390390000    2.44880631160000    0.91956534350000
H         4.13423953790000   -2.31249753150000    0.22653094460000
H         2.26448979120000   -3.65783363970000    0.07943846120000
H        -0.16567553740000   -4.04101433270000    0.02278203040000
H         1.66708524120000    0.59186386300000    0.09535551940000
H        -2.91300447460000   -3.76365911050000   -0.04721880320000
H        -5.22870689230000   -2.89766261710000   -0.11015816990000
H        -5.66048581680000   -0.48840301860000   -0.16417865000000
H        -3.81016199170000    1.13914897360000   -0.13102684770000
H         0.38530732660000    1.70213631460000   -1.66988972810000
H         0.65888736540000    4.15033603400000   -1.64069343640000
H        -0.57115267880000    5.51328626940000    0.00790834990000
H        -2.05644761660000    4.41669777000000    1.64437845920000
H        -2.29316546970000    1.96260430740000    1.64749959120000
$end

$rem
BASIS = 6-31G*
GUI = 2
METHOD = B3LYP
PRINT_ORBITALS false
MOLDEN_FORMAT false
--------------------------------------------------------------
 ----------------------------------------------------------------
             Standard Nuclear Orientation (Angstroms)
    I     Atom           X                Y                Z
 ----------------------------------------------------------------
    1      F       5.7208058292     0.2769686367    -0.1297790275
    2      C       4.3879683818     0.2711555933    -0.0724862484
    3      F       3.9730251774    -0.9849186232     0.0635995726
    4      C       3.6562139753     1.3735759098    -0.1392074986
    5      C       2.2100327692     1.5074827441    -0.0849424463
    6      C       1.6797842228     2.8099156202    -0.0651081778
    7      C       0.3231890470     3.0401012993    -0.0260191239
    8      C       1.3547385287     0.4082431591    -0.0577085955
    9      C      -0.0089420383     0.6389794809     0.0042903372
   10      C      -0.5397067391     1.9514456901     0.0062466645
   11      C      -1.9663239185     1.8148650413     0.0298564776
   12      C      -3.0142032898     2.7271409586     0.0584586418
   13      C      -4.3068994097     2.2467408811     0.1002882501
   14      C      -4.5620005195     0.8766411530     0.1283483576
   15      C      -3.5378131634    -0.0498387771     0.1004448432
   16      C      -2.2357074110     0.4259582822     0.0349329639
   17      N      -1.0447406054    -0.2709404046     0.0195443548
   18      C      -0.9095945567    -1.6685184319     0.0148553257
   19      C      -0.0772415149    -2.2935731895     0.9381993737
   20      C       0.0577456729    -3.6694795317     0.9234866781
   21      C      -0.6411101349    -4.4302224074     0.0010746550
   22      C      -1.4744581610    -3.8093512403    -0.9144256893
   23      C      -1.6071190718    -2.4330719043    -0.9151833769
   24      H       4.2216728044     2.2891363159    -0.2375124757
   25      H       2.3614233029     3.6471531612    -0.0865436104
   26      H      -0.0659528284     4.0467984777    -0.0243370422
   27      H       1.7352284054    -0.5984077325    -0.0994688408
   28      H      -2.8149246305     3.7880751610     0.0522044594
   29      H      -5.1362823627     2.9377993001     0.1208937419
   30      H      -5.5842329962     0.5315377558     0.1768283077
   31      H      -3.7450521350    -1.1085160891     0.1399510445
   32      H       0.4501077229    -1.6993432614     1.6691905712
   33      H       0.7070391625    -4.1493494235     1.6402705401
   34      H      -0.5360625588    -5.5045319688    -0.0049340320
   35      H      -2.0177343097    -4.3984997873    -1.6383303230
   36      H      -2.2378404115    -1.9428611821    -1.6418162002
 ----------------------------------------------------------------
 Molecular Point Group                 C1    NOp =  1
 Largest Abelian Subgroup              C1    NOp =  1
 Nuclear Repulsion Energy =        1763.17317761 hartrees
 There are       79 alpha and       79 beta electrons
 Requested basis set is 6-31G(d)
 There are 118 shells and 371 basis functions

 Total QAlloc Memory Limit   4000 MB
 Mega-Array Size       188 MB
 MEM_STATIC part       192 MB
 A cutoff of  1.0D-08 yielded   3528 shell pairs
 There are     38008 function pairs
 Smallest overlap matrix eigenvalue = 2.53E-04

 Scale SEOQF with 1.000000e-02/1.000000e-02/1.000000e-01

 Standard Electronic Orientation quadrupole field applied
 Nucleus-field energy     =     0.0000000066 hartrees
 Guess from superposition of atomic densities
 Warning:  Energy on first SCF cycle will be non-variational
 SAD guess density has 158.000000 electrons

 -----------------------------------------------------------------------
  General SCF calculation program by
  Eric Jon Sundstrom, Paul Horn, Yuezhi Mao, Dmitri Zuev, Alec White,
  David Stuck, Shaama M.S., Shane Yost, Joonho Lee, David Small,
  Daniel Levine, Susi Lehtola, Hugh Burton, Evgeny Epifanovsky,
  Bang C. Huynh
 -----------------------------------------------------------------------
 Exchange:     0.2000 Hartree-Fock + 0.0800 Slater + 0.7200 B88
 Correlation:  0.1900 VWN1RPA + 0.8100 LYP
 Using SG-1 standard quadrature grid
 A restricted SCF calculation will be
 performed using DIIS
 SCF converges when DIIS error is below 1.0e-05
 ---------------------------------------
  Cycle       Energy         DIIS error
 ---------------------------------------
    1   -1030.5177785735      4.33e-02  
    2   -1024.0535892732      4.26e-03  
    3   -1023.7957853064      5.79e-03  
    4   -1024.3469634059      1.47e-03  
    5   -1024.3824142223      4.90e-04  
    6   -1024.3861619611      2.32e-04  
    7   -1024.3871108437      5.11e-05  
    8   -1024.3871496307      2.13e-05  
    9   -1024.3871581532      4.89e-06  Convergence criterion met
 ---------------------------------------
 SCF time:   CPU 106.86s  wall 107.00s 
 SCF   energy in the final basis set =    -1024.3871581532
 Total energy in the final basis set =    -1024.3871581532
 
 --------------------------------------------------------------
 
                    Orbital Energies (a.u.)
 --------------------------------------------------------------
 
 Alpha MOs
 -- Occupied --
-24.7411 -24.7301 -14.3827 -10.3519 -10.2371 -10.2224 -10.2212 -10.2026
-10.1994 -10.1977 -10.1975 -10.1969 -10.1966 -10.1944 -10.1875 -10.1852
-10.1848 -10.1847 -10.1843 -10.1842 -10.1836 -10.1818 -10.1777  -1.2810
 -1.2202  -1.0029  -0.8773  -0.8573  -0.8462  -0.8101  -0.7784  -0.7631
 -0.7555  -0.7519  -0.7188  -0.7155  -0.6583  -0.6367  -0.6270  -0.6141
 -0.6060  -0.5824  -0.5794  -0.5670  -0.5418  -0.5306  -0.5169  -0.5149
 -0.5003  -0.4915  -0.4734  -0.4614  -0.4568  -0.4471  -0.4398  -0.4373
 -0.4371  -0.4350  -0.4329  -0.4234  -0.4198  -0.4127  -0.4031  -0.3795
 -0.3759  -0.3715  -0.3645  -0.3603  -0.3586  -0.3397  -0.3360  -0.3315
 -0.3025  -0.2631  -0.2620  -0.2550  -0.2534  -0.2008  -0.1986
 -- Virtual --
 -0.0376  -0.0148  -0.0098   0.0082   0.0182   0.0396   0.0821   0.0893
  0.0926   0.1049   0.1278   0.1364   0.1428   0.1460   0.1536   0.1550
  0.1637   0.1679   0.1708   0.1807   0.1890   0.1926   0.2050   0.2090
  0.2125   0.2191   0.2376   0.2649   0.2714   0.2824   0.2904   0.2978
  0.3015   0.3163   0.3291   0.3429   0.3490   0.3617   0.3749   0.3896
  0.4251   0.4430   0.4461   0.4607   0.4806   0.4898   0.5011   0.5135
  0.5184   0.5234   0.5318   0.5368   0.5420   0.5474   0.5484   0.5550
  0.5572   0.5634   0.5740   0.5765   0.5787   0.5850   0.5871   0.5932
  0.5977   0.5997   0.6044   0.6065   0.6095   0.6153   0.6199   0.6223
  0.6246   0.6258   0.6324   0.6373   0.6441   0.6481   0.6549   0.6654
  0.6900   0.7099   0.7173   0.7245   0.7501   0.7788   0.7889   0.7903
  0.8082   0.8120   0.8247   0.8349   0.8370   0.8401   0.8421   0.8505
  0.8533   0.8593   0.8656   0.8718   0.8804   0.8927   0.9065   0.9109
  0.9187   0.9240   0.9383   0.9557   0.9583   0.9665   0.9811   1.0013
  1.0079   1.0118   1.0239   1.0360   1.0500   1.0581   1.0870   1.0938
  1.1149   1.1279   1.1470   1.1565   1.1594   1.1679   1.1684   1.1762
  1.1946   1.2147   1.2191   1.2211   1.2329   1.2409   1.2560   1.2601
  1.2786   1.2994   1.3269   1.3343   1.3526   1.3536   1.3689   1.3984
  1.4073   1.4193   1.4292   1.4326   1.4427   1.4517   1.4603   1.4622
  1.4658   1.4672   1.4779   1.4793   1.4928   1.4943   1.5024   1.5064
  1.5117   1.5559   1.6069   1.6219   1.6434   1.6682   1.6850   1.7158
  1.7282   1.7520   1.7639   1.7807   1.7839   1.7925   1.7954   1.8236
  1.8301   1.8360   1.8421   1.8490   1.8732   1.8768   1.8902   1.8984
  1.9092   1.9168   1.9248   1.9355   1.9566   1.9631   1.9714   1.9753
  1.9903   1.9924   1.9996   2.0085   2.0285   2.0316   2.0433   2.0823
  2.0906   2.0975   2.1098   2.1200   2.1371   2.1414   2.1488   2.1570
  2.1620   2.1742   2.2010   2.2094   2.2158   2.2438   2.2477   2.2549
  2.2699   2.2728   2.2834   2.3080   2.3128   2.3163   2.3266   2.3493
  2.3676   2.3855   2.4012   2.4279   2.4684   2.5098   2.5136   2.5265
  2.5629   2.5702   2.5802   2.5972   2.6020   2.6405   2.6436   2.6498
  2.6738   2.6851   2.6933   2.7010   2.7269   2.7343   2.7409   2.7478
  2.7622   2.7716   2.7906   2.8135   2.8445   2.8586   2.8772   2.8954
  2.9354   2.9576   2.9906   3.0097   3.0678   3.1404   3.1906   3.2609
  3.2990   3.3771   3.4119   3.4853   3.5702   4.0836   4.0921   4.0994
  4.1084   4.1184   4.1268   4.1538   4.1676   4.1818   4.1900   4.2632
  4.3432   4.3450   4.3714   4.3951   4.4467   4.5047   4.5287   4.7310
  4.7748   4.8131   4.8876   5.2861
 --------------------------------------------------------------
 
          Ground-State Mulliken Net Atomic Charges

     Atom                 Charge (a.u.)
  ----------------------------------------
      1 F                    -0.251701
      2 C                     0.542289
      3 F                    -0.237393
      4 C                    -0.303906
      5 C                     0.197120
      6 C                    -0.218134
      7 C                    -0.195236
      8 C                    -0.261630
      9 C                     0.319975
     10 C                     0.066138
     11 C                     0.057575
     12 C                    -0.193493
     13 C                    -0.145922
     14 C                    -0.138574
     15 C                    -0.177826
     16 C                     0.315263
     17 N                    -0.735861
     18 C                     0.277311
     19 C                    -0.153264
     20 C                    -0.140164
     21 C                    -0.120497
     22 C                    -0.140926
     23 C                    -0.153869
     24 H                     0.158825
     25 H                     0.121621
     26 H                     0.131490
     27 H                     0.151682
     28 H                     0.128523
     29 H                     0.121996
     30 H                     0.125377
     31 H                     0.139461
     32 H                     0.153247
     33 H                     0.138211
     34 H                     0.133261
     35 H                     0.136920
     36 H                     0.152112
  ----------------------------------------
  Sum of atomic charges =     0.000000

 -----------------------------------------------------------------
                    Cartesian Multipole Moments
 -----------------------------------------------------------------
    Charge (ESU x 10^10)
                 0.0000
    Dipole Moment (Debye)
         X      -0.8398      Y      -0.8915      Z      -0.0320
       Tot       1.2252
    Quadrupole Moments (Debye-Ang)
        XX    -127.9497     XY       4.0052     YY    -112.4154
        XZ       2.9963     YZ       0.1214     ZZ    -130.5569
    Octopole Moments (Debye-Ang^2)
       XXX      13.3832    XXY      13.2720    XYY      20.4851
       YYY     -20.5798    XXZ      -4.2652    XYZ     -12.5423
       YYZ      -2.9473    XZZ      32.0429    YZZ     -17.8293
       ZZZ      -0.5261
    Hexadecapole Moments (Debye-Ang^3)
      XXXX   -5724.1532   XXXY      10.9736   XXYY   -1516.4950
      XYYY      -8.7502   YYYY   -3480.5476   XXXZ      -3.1900
      XXYZ      14.4913   XYYZ      37.7648   YYYZ       8.9541
      XXZZ   -1029.7083   XYZZ       3.1116   YYZZ    -709.4919
      XZZZ      13.3678   YZZZ       0.2105   ZZZZ    -281.1070
 -----------------------------------------------------------------
Archival summary:
1\1\nia2015.scinet.local\SP\ProcedureUnspecified\6-31G*\212013\rhickman\TueFeb814:47:032022TueFeb814:47:032022\0\\#,ProcedureUnspecified,6-31G*,\\0,1\N\C,1,1.37879\C,1,1.37997,2,108.373\C,2,1.38445,1,129.085,3,-177.671,0\H,4,1.07697,2,120.365,1,-0.196062,0\C,3,1.38786,1,129.577,2,-177.473,0\H,6,1.07949,3,121.202,1,-0.593992,0\C,6,1.38134,3,117.817,1,178.71,0\H,8,1.08,6,119.234,3,179.852,0\C,4,1.39305,2,118.302,1,178.841,0\C,8,1.39393,6,121.544,3,-0.383836,0\H,11,1.07975,8,119.217,6,179.832,0\C,11,1.37971,8,120.952,6,-0.73272,0\H,13,1.07951,11,121.02,8,-179.039,0\C,13,1.38965,11,118.591,8,0.699797,0\C,1,1.4041,2,125.77,3,179.77,0\C,16,1.39142,1,120.06,2,-128.696,0\H,17,1.07987,16,119.546,1,1.04971,0\C,17,1.38266,16,119.899,1,-179.821,0\H,19,1.07995,17,119.629,16,-179.99,0\C,19,1.38495,17,120.287,16,-0.550452,0\H,21,1.07945,19,120.069,17,-179.67,0\C,21,1.38491,19,119.846,17,0.283451,0\H,23,1.07965,21,120.1,19,179.881,0\C,23,1.38259,21,120.296,19,0.279679,0\H,25,1.07961,23,120.482,21,178.716,0\C,10,1.40637,4,119.934,2,-0.73417,0\H,27,1.07984,10,118.669,4,179.98,0\C,27,1.37654,10,121.792,4,-0.344659,0\H,29,1.07929,27,120.753,10,-179.193,0\C,29,1.38953,27,118.793,10,0.566407,0\C,10,1.45338,4,122.613,2,179.512,0\H,32,1.08058,10,116.489,4,175.194,0\C,32,1.32486,10,128.636,4,-5.45484,0\F,34,1.32982,32,128.226,10,-0.146575,0\F,34,1.33408,32,123.095,10,-179.771,0\\\@

 Total job time:  107.51s(wall), 107.22s(cpu) 
 Tue Feb  8 14:47:03 2022

        *************************************************************
        *                                                           *
        *  Thank you very much for using Q-Chem.  Have a nice day.  *
        *                                                           *
        *************************************************************


