23
 energy: -38.060723878734 gnorm: 0.000062463745 xtb: 6.5.0 (unknown)
C           -4.00944849040000        0.83375960670000       -0.66973837920000
C           -2.98134615170000        0.85211254320000        0.16633399230000
C           -1.89854296770000       -0.13473317710000        0.15912280510000
C           -2.20379957030000       -1.46754000810000       -0.10562433960000
C           -1.21771399120000       -2.43470269270000       -0.11572564740000
C            0.09361866030000       -2.06989532710000        0.11043235590000
C            0.42808322270000       -0.73719701580000        0.34706781750000
C            1.85830114380000       -0.44582574590000        0.51623010980000
C            2.53800206400000        0.48084914710000       -0.13383654510000
F            2.06327669010000        1.33740939190000       -1.03090769360000
F            3.84776064920000        0.68419816140000        0.01205599900000
C           -0.56962500400000        0.24041053330000        0.41288851310000
C           -0.23924327720000        1.66190211160000        0.75393081490000
H           -4.78872282030000        1.57520516870000       -0.62397476540000
H           -4.10255304970000        0.09239088020000       -1.44579207570000
H           -2.91637547040000        1.64048639840000        0.90391897500000
H           -3.23253810800000       -1.74564482700000       -0.27737307760000
H           -1.46957810650000       -3.46790520080000       -0.30175468320000
H            0.87694276920000       -2.81319504250000        0.08769113670000
H            2.42612483100000       -1.09468295350000        1.16685156450000
H            0.74603590830000        1.73940579310000        1.20557725050000
H           -0.96314202010000        2.06725204170000        1.45754538160000
H           -0.25757163780000        2.28294611910000       -0.14101774510000
