
Running Job 1 of 1 fragments/A003/conf-1/spe_input.inp
qchem fragments/A003/conf-1/spe_input.inp_334911.0 /gpfs/fs0/scratch/a/aspuru/rhickman/descriptor_computation/qchem334911/ 0
/scinet/niagara/software/commercial/qc52/exe/qcprog.exe_s fragments/A003/conf-1/spe_input.inp_334911.0 /gpfs/fs0/scratch/a/aspuru/rhickman/descriptor_computation/qchem334911/
                  Welcome to Q-Chem
     A Quantum Leap Into The Future Of Chemistry


 Q-Chem 5.2, Q-Chem, Inc., Pleasanton, CA (2019)

 License issued to: SRG Alan Aspuru-Guzik, University of Toronto

 Yihan Shao,  Zhengting Gan,  E. Epifanovsky,  A. T. B. Gilbert,  M. Wormit,  
 J. Kussmann,  A. W. Lange,  A. Behn,  Jia Deng,  Xintian Feng,  D. Ghosh,  
 M. Goldey,  P. R. Horn,  L. D. Jacobson,  I. Kaliman,  T. Kus,  A. Landau,  
 Jie Liu,  E. I. Proynov,  R. M. Richard,  R. P. Steele,  E. J. Sundstrom,  
 H. L. Woodcock III,  P. M. Zimmerman,  D. Zuev,  B. Albrecht,  E. Alguire,  
 S. A. Baeppler,  D. Barton,  Z. Benda,  Y. A. Bernard,  E. J. Berquist,  
 K. B. Bravaya,  H. Burton,  D. Casanova,  Chun-Min Chang,  Yunqing Chen,  
 A. Chien,  K. D. Closser,  M. P. Coons,  S. Coriani,  S. Dasgupta,  
 A. L. Dempwolff,  M. Diedenhofen,  Hainam Do,  R. G. Edgar,  Po-Tung Fang,  
 S. Faraji,  S. Fatehi,  Qingguo Feng,  K. D. Fenk,  J. Fosso-Tande,  
 J. Gayvert,  Qinghui Ge,  A. Ghysels,  G. Gidofalvi,  J. Gomes,  
 J. Gonthier,  A. Gunina,  D. Hait,  M. W. D. Hanson-Heine,  
 P. H. P. Harbach,  A. W. Hauser,  M. F. Herbst,  J. E. Herr,  
 E. G. Hohenstein,  Z. C. Holden,  Kerwin Hui,  B. C. Huynh,  T.-C. Jagau,  
 Hyunjun Ji,  B. Kaduk,  K. Khistyaev,  Jaehoon Kim,  P. Klunzinger,  K. Koh,  
 D. Kosenkov,  L. Koulias,  T. Kowalczyk,  C. M. Krauter,  A. Kunitsa,  
 Ka Un Lao,  A. Laurent,  K. V. Lawler,  Joonho Lee,  D. Lefrancois,  
 S. Lehtola,  D. S. Levine,  Yi-Pei Li,  You-Sheng Lin,  Fenglai Liu,  
 E. Livshits,  A. Luenser,  P. Manohar,  E. Mansoor,  S. F. Manzer,  
 Shan-Ping Mao,  Yuezhi Mao,  N. Mardirossian,  A. V. Marenich,  
 T. Markovich,  L. A. Martinez-Martinez,  S. A. Maurer,  N. J. Mayhall,  
 S. C. McKenzie,  J.-M. Mewes,  P. Morgante,  A. F. Morrison,  
 J. W. Mullinax,  K. Nanda,  T. S. Nguyen-Beck,  R. Olivares-Amaya,  
 J. A. Parkhill,  Zheng Pei,  T. M. Perrine,  F. Plasser,  P. Pokhilko,  
 S. Prager,  A. Prociuk,  E. Ramos,  D. R. Rehn,  F. Rob,  M. Scheurer,  
 M. Schneider,  N. Sergueev,  S. M. Sharada,  S. Sharma,  D. W. Small,  
 T. Stauch,  T. Stein,  Yu-Chuan Su,  A. J. W. Thom,  A. Tkatchenko,  
 T. Tsuchimochi,  N. M. Tubman,  L. Vogt,  M. L. Vidal,  O. Vydrov,  
 M. A. Watson,  J. Wenzel,  M. de Wergifosse,  T. A. Wesolowski,  A. White,  
 J. Witte,  A. Yamada,  Jun Yang,  K. Yao,  S. Yeganeh,  S. R. Yost,  
 Zhi-Qiang You,  A. Zech,  Igor Ying Zhang,  Xing Zhang,  Yan Zhao,  
 Ying Zhu,  B. R. Brooks,  G. K. L. Chan,  C. J. Cramer,  M. S. Gordon,  
 W. J. Hehre,  A. Klamt,  M. W. Schmidt,  C. D. Sherrill,  D. G. Truhlar,  
 A. Aspuru-Guzik,  R. Baer,  A. T. Bell,  N. A. Besley,  Jeng-Da Chai,  
 A. E. DePrince, III,  R. A. DiStasio Jr.,  A. Dreuw,  B. D. Dunietz,  
 T. R. Furlani,  Chao-Ping Hsu,  Yousung Jung,  Jing Kong,  D. S. Lambrecht,  
 WanZhen Liang,  C. Ochsenfeld,  V. A. Rassolov,  L. V. Slipchenko,  
 J. E. Subotnik,  T. Van Voorhis,  J. M. Herbert,  A. I. Krylov,  
 P. M. W. Gill,  M. Head-Gordon

 Contributors to earlier versions of Q-Chem not listed above: 
 R. D. Adamson,  B. Austin,  J. Baker,  G. J. O. Beran,  K. Brandhorst,  
 S. T. Brown,  E. F. C. Byrd,  A. K. Chakraborty,  C.-L. Cheng,  
 Siu Hung Chien,  D. M. Chipman,  D. L. Crittenden,  H. Dachsel,  
 R. J. Doerksen,  A. D. Dutoi,  L. Fusti-Molnar,  W. A. Goddard III,  
 A. Golubeva-Zadorozhnaya,  S. R. Gwaltney,  G. Hawkins,  A. Heyden,  
 S. Hirata,  G. Kedziora,  F. J. Keil,  C. Kelley,  Jihan Kim,  R. A. King,  
 R. Z. Khaliullin,  P. P. Korambath,  W. Kurlancheek,  A. M. Lee,  M. S. Lee,  
 S. V. Levchenko,  Ching Yeh Lin,  D. Liotard,  R. C. Lochan,  I. Lotan,  
 P. E. Maslen,  N. Nair,  D. P. O'Neill,  D. Neuhauser,  E. Neuscamman,  
 C. M. Oana,  R. Olson,  B. Peters,  R. Peverati,  P. A. Pieniazek,  
 Y. M. Rhee,  J. Ritchie,  M. A. Rohrdanz,  E. Rosta,  N. J. Russ,  
 H. F. Schaefer III,  N. E. Schultz,  N. Shenvi,  A. C. Simmonett,  A. Sodt,  
 D. Stuck,  K. S. Thanthiriwatte,  V. Vanovschi,  Tao Wang,  A. Warshel,  
 C. F. Williams,  Q. Wu,  X. Xu,  W. Zhang

 Please cite Q-Chem as follows:
 Y. Shao et al., Mol. Phys. 113, 184-215 (2015)
 DOI: 10.1080/00268976.2014.952696

 Q-Chem 5.2.1 for Intel X86 EM64T Linux

 Parts of Q-Chem use Armadillo 8.300.2 (Tropical Shenanigans).
 http://arma.sourceforge.net/

 Q-Chem begins on Tue Feb  8 15:15:30 2022  

Host: 
0

     Scratch files written to /gpfs/fs0/scratch/a/aspuru/rhickman/descriptor_computation/qchem334911//
 Jul1719 |scratch|qcdevops|jenkins|workspace|build_RNUM -1
Processing $rem in /scinet/niagara/software/commercial/qc52/config/preferences:
	 MEM_TOTAL  4000 
NAlpha2: 192
NElect   192
Mult     1

Checking the input file for inconsistencies... 	...done.

--------------------------------------------------------------
User input:
--------------------------------------------------------------
$molecule
0 1
C         2.14071850740000   -6.47925624610000    0.51897902180000
O         2.73734287680000   -5.41318497490000   -0.17714520340000
C         2.15883128660000   -4.18096348500000   -0.09964754060000
C         1.00583245300000   -3.88165501260000    0.61736162350000
C         0.50960019520000   -2.59041173460000    0.62784401600000
C         1.14008697600000   -1.57527410720000   -0.08360723990000
N         0.63592573390000   -0.26507957650000   -0.06818019400000
C        -0.73038103490000   -0.03236519760000   -0.12333665270000
C        -1.29536430400000    1.07978944910000    0.50972086330000
C        -2.65026849280000    1.31494052360000    0.45367786050000
C        -3.50258472400000    0.44778914800000   -0.23657859350000
C        -4.93654804460000    0.63662808960000   -0.33622623520000
C        -5.68011493380000    1.61553268380000    0.16032748760000
F        -5.28633125890000    2.66653796150000    0.87470734680000
F        -7.00397518640000    1.67941143700000   -0.00252882690000
C        -2.93346388940000   -0.66445320650000   -0.86532328130000
C        -1.57972883380000   -0.90307506930000   -0.81400175230000
C         1.54091347540000    0.80635472110000    0.00420948450000
C         1.33830645200000    1.96193579480000   -0.74247688890000
C         2.22884065100000    3.01830424110000   -0.67532014830000
C         3.35478505990000    2.93207026590000    0.13586005280000
O         4.29785513530000    3.90651051460000    0.27551223730000
C         4.13752839220000    5.10330308220000   -0.44516706720000
C         3.56554422890000    1.76827660400000    0.87803183710000
C         2.67171147890000    0.72358629760000    0.81771437440000
C         2.29664400220000   -1.87981609430000   -0.80288150310000
C         2.79909033810000   -3.16099429390000   -0.80630712630000
H         2.76234836640000   -7.34952012290000    0.31434969760000
H         1.12248559710000   -6.67206985300000    0.16518884820000
H         2.12156458620000   -6.29537516610000    1.59826028550000
H         0.48700554760000   -4.64059874080000    1.18125053730000
H        -0.38000164110000   -2.36716401150000    1.19823372850000
H        -0.65640650950000    1.75564026060000    1.05813749920000
H        -3.04854658960000    2.17774471390000    0.96170961870000
H        -5.48357974660000   -0.11400335630000   -0.88890059310000
H        -3.56933276860000   -1.34587845170000   -1.41183028360000
H        -1.16252449980000   -1.76205983340000   -1.31801986170000
H         0.47299907550000    2.03597539980000   -1.38458358950000
H         2.03482356790000    3.89780380550000   -1.26851835320000
H         4.99063595680000    5.72484228380000   -0.17774210170000
H         3.21315976000000    5.62027372210000   -0.16719385430000
H         4.14439327510000    4.92702800100000   -1.52588144170000
H         4.44103236510000    1.71230568560000    1.50497416540000
H         2.84258415450000   -0.16839361450000    1.40148973790000
H         2.79785864050000   -1.10118264550000   -1.35795427510000
H         3.69186346870000   -3.40408297000000   -1.35998422400000
$end

$rem
BASIS = 6-31G*
GUI = 2
METHOD = B3LYP
PRINT_ORBITALS false
MOLDEN_FORMAT false
--------------------------------------------------------------
 ----------------------------------------------------------------
             Standard Nuclear Orientation (Angstroms)
    I     Atom           X                Y                Z
 ----------------------------------------------------------------
    1      C      -4.5647802406    -4.9993976601    -0.5082114177
    2      O      -4.6639066789    -3.7754943261     0.1768375649
    3      C      -3.6219591673    -2.8996255270     0.0977769691
    4      C      -2.4455271295    -3.1169916371    -0.6106393264
    5      C      -1.4539483787    -2.1524888383    -0.6237339575
    6      C      -1.6052475464    -0.9605172423     0.0766182033
    7      N      -0.5985016358     0.0178294991     0.0585465366
    8      C       0.7392799723    -0.3427023873     0.1244975145
    9      C       1.7218359142     0.4250265600    -0.5095623845
   10      C       3.0502796795     0.0714910972    -0.4428387321
   11      C       3.4569432274    -1.0669533954     0.2595979801
   12      C       4.8375207509    -1.4952807311     0.3708724071
   13      C       5.9256242585    -0.9221716802    -0.1243934765
   14      F       6.0124689662     0.1909368709    -0.8479013272
   15      F       7.1535155331    -1.4172992871     0.0497912337
   16      C       2.4706184060    -1.8330660071     0.8893092433
   17      C       1.1417550765    -1.4831310811     0.8273359233
   18      C      -0.9709605071     1.3691484665    -0.0276275282
   19      C      -0.3071764023     2.3399841087     0.7145493927
   20      C      -0.6728530295     3.6716140821     0.6338171183
   21      C      -1.7266772467     4.0579564527    -0.1867890728
   22      O      -2.1739621101     5.3365769125    -0.3400328945
   23      C      -1.5311544377     6.3623188585     0.3755420707
   24      C      -2.4013299335     3.0831173782    -0.9244791182
   25      C      -2.0277266171     1.7606505949    -0.8506198822
   26      C      -2.7871159098    -0.7463932280     0.7872964149
   27      C      -3.7800799552    -1.6992147681     0.7932253138
   28      H      -5.4949750015    -5.5274516396    -0.3043664798
   29      H      -3.7230316111    -5.5979382122    -0.1444102552
   30      H      -4.4641549854    -4.8497529626    -1.5882615059
   31      H      -2.2891359038    -4.0282957875    -1.1658097304
   32      H      -0.5493873994    -2.3273248448    -1.1874512649
   33      H       1.4279457977     1.3016207736    -1.0672481144
   34      H       3.7762887936     0.6837147662    -0.9520005195
   35      H       5.0165896641    -2.4012337189     0.9324093202
   36      H       2.7593794637    -2.7134444010     1.4450883676
   37      H       0.4001840496    -2.0839935377     1.3322965715
   38      H       0.5058519090     2.0502872906     1.3638570643
   39      H      -0.1316453679     4.3940429195     1.2239332634
   40      H      -2.0438597002     7.2817204626     0.0972371796
   41      H      -0.4736560414     6.4421399686     0.1029419058
   42      H      -1.6174430957     6.2144451981     1.4570924570
   43      H      -3.2161200045     3.3936157087    -1.5588109165
   44      H      -2.5532016501     1.0172761096    -1.4310418616
   45      H      -2.9192159400     0.1753359586     1.3336999582
   46      H      -4.6957364102    -1.5412099859     1.3403103537
 ----------------------------------------------------------------
 Molecular Point Group                 C1    NOp =  1
 Largest Abelian Subgroup              C1    NOp =  1
 Nuclear Repulsion Energy =        2285.71355708 hartrees
 There are       96 alpha and       96 beta electrons
 Requested basis set is 6-31G(d)
 There are 146 shells and 443 basis functions

 Total QAlloc Memory Limit   4000 MB
 Mega-Array Size       188 MB
 MEM_STATIC part       192 MB
 A cutoff of  1.0D-08 yielded   4443 shell pairs
 There are     43275 function pairs
 Smallest overlap matrix eigenvalue = 3.49E-04

 Scale SEOQF with 1.000000e-02/1.000000e-02/1.000000e-01

 Standard Electronic Orientation quadrupole field applied
 Nucleus-field energy     =     0.0000000110 hartrees
 Guess from superposition of atomic densities
 Warning:  Energy on first SCF cycle will be non-variational
 SAD guess density has 192.000000 electrons

 -----------------------------------------------------------------------
  General SCF calculation program by
  Eric Jon Sundstrom, Paul Horn, Yuezhi Mao, Dmitri Zuev, Alec White,
  David Stuck, Shaama M.S., Shane Yost, Joonho Lee, David Small,
  Daniel Levine, Susi Lehtola, Hugh Burton, Evgeny Epifanovsky,
  Bang C. Huynh
 -----------------------------------------------------------------------
 Exchange:     0.2000 Hartree-Fock + 0.0800 Slater + 0.7200 B88
 Correlation:  0.1900 VWN1RPA + 0.8100 LYP
 Using SG-1 standard quadrature grid
 A restricted SCF calculation will be
 performed using DIIS
 SCF converges when DIIS error is below 1.0e-05
 ---------------------------------------
  Cycle       Energy         DIIS error
 ---------------------------------------
    1   -1261.3069642082      3.91e-02  
    2   -1254.2332415147      3.85e-03  
    3   -1254.0606787917      4.71e-03  
    4   -1254.5762240987      1.06e-03  
    5   -1254.6024860718      3.29e-04  
    6   -1254.6042934906      1.94e-04  
    7   -1254.6052738863      5.39e-05  
    8   -1254.6053361297      2.25e-05  
    9   -1254.6053489434      4.63e-06  Convergence criterion met
 ---------------------------------------
 SCF time:   CPU 140.49s  wall 141.00s 
 SCF   energy in the final basis set =    -1254.6053489434
 Total energy in the final basis set =    -1254.6053489434
 
 --------------------------------------------------------------
 
                    Orbital Energies (a.u.)
 --------------------------------------------------------------
 
 Alpha MOs
 -- Occupied --
-24.7358 -24.7250 -19.1756 -19.1754 -14.3613 -10.3457 -10.2418 -10.2416
-10.2394 -10.2390 -10.2236 -10.2184 -10.2182 -10.1953 -10.1935 -10.1864
-10.1861 -10.1856 -10.1853 -10.1853 -10.1850 -10.1848 -10.1825 -10.1821
-10.1819 -10.1799 -10.1797  -1.2753  -1.2149  -1.0657  -1.0655  -0.9749
 -0.8616  -0.8576  -0.8417  -0.7979  -0.7675  -0.7555  -0.7512  -0.7478
 -0.7454  -0.7213  -0.7036  -0.6798  -0.6427  -0.6211  -0.6198  -0.6113
 -0.5993  -0.5977  -0.5714  -0.5628  -0.5423  -0.5405  -0.5300  -0.5203
 -0.5128  -0.5096  -0.4871  -0.4803  -0.4702  -0.4700  -0.4683  -0.4506
 -0.4489  -0.4468  -0.4401  -0.4324  -0.4279  -0.4258  -0.4248  -0.4221
 -0.4177  -0.4138  -0.4071  -0.3987  -0.3901  -0.3814  -0.3798  -0.3764
 -0.3663  -0.3623  -0.3578  -0.3410  -0.3369  -0.3257  -0.3255  -0.3222
 -0.3076  -0.2679  -0.2593  -0.2497  -0.2493  -0.2240  -0.2201  -0.1659
 -- Virtual --
 -0.0219  -0.0119   0.0029   0.0092   0.0120   0.0352   0.0809   0.0921
  0.0951   0.0975   0.1095   0.1100   0.1266   0.1392   0.1398   0.1483
  0.1493   0.1535   0.1563   0.1570   0.1610   0.1638   0.1667   0.1702
  0.1721   0.1797   0.1814   0.1898   0.1956   0.2014   0.2067   0.2095
  0.2113   0.2195   0.2542   0.2587   0.2647   0.2748   0.2929   0.3027
  0.3071   0.3231   0.3378   0.3413   0.3475   0.3502   0.3684   0.3851
  0.3886   0.3980   0.4211   0.4282   0.4777   0.4786   0.4881   0.5037
  0.5075   0.5168   0.5210   0.5256   0.5293   0.5314   0.5361   0.5433
  0.5470   0.5481   0.5498   0.5563   0.5598   0.5639   0.5712   0.5771
  0.5843   0.5864   0.5897   0.5925   0.5944   0.5978   0.5979   0.6008
  0.6062   0.6067   0.6099   0.6118   0.6210   0.6303   0.6331   0.6383
  0.6440   0.6520   0.6628   0.6651   0.6750   0.6827   0.6922   0.6953
  0.7137   0.7226   0.7391   0.7428   0.7444   0.7849   0.8049   0.8111
  0.8124   0.8144   0.8192   0.8326   0.8390   0.8445   0.8470   0.8491
  0.8505   0.8514   0.8537   0.8633   0.8666   0.8730   0.8745   0.8827
  0.8870   0.8908   0.8948   0.9141   0.9171   0.9318   0.9365   0.9509
  0.9526   0.9547   0.9621   0.9734   0.9888   0.9987   1.0073   1.0112
  1.0152   1.0226   1.0290   1.0357   1.0488   1.0663   1.0771   1.0862
  1.1033   1.1225   1.1299   1.1415   1.1536   1.1581   1.1625   1.1667
  1.1685   1.1827   1.1931   1.2037   1.2222   1.2240   1.2305   1.2467
  1.2499   1.2594   1.2730   1.2751   1.2846   1.3008   1.3085   1.3198
  1.3500   1.3563   1.3689   1.3767   1.3782   1.4039   1.4101   1.4206
  1.4232   1.4292   1.4351   1.4391   1.4562   1.4602   1.4670   1.4724
  1.4751   1.4807   1.4917   1.5077   1.5126   1.5190   1.5209   1.5269
  1.5348   1.5493   1.5543   1.6064   1.6546   1.6730   1.6840   1.7231
  1.7288   1.7371   1.7470   1.7765   1.7836   1.7889   1.7911   1.8038
  1.8180   1.8366   1.8398   1.8433   1.8444   1.8537   1.8606   1.8667
  1.8797   1.8846   1.8922   1.8987   1.9045   1.9206   1.9301   1.9367
  1.9461   1.9749   1.9790   1.9908   1.9980   2.0022   2.0081   2.0128
  2.0218   2.0270   2.0444   2.0511   2.0615   2.0736   2.0779   2.0851
  2.0901   2.0981   2.1083   2.1133   2.1187   2.1206   2.1455   2.1577
  2.1624   2.1638   2.1682   2.1710   2.1832   2.1894   2.2402   2.2450
  2.2487   2.2542   2.2554   2.2650   2.2750   2.2870   2.3105   2.3234
  2.3314   2.3358   2.3490   2.3582   2.3679   2.3718   2.3748   2.3773
  2.4310   2.4495   2.4929   2.5098   2.5284   2.5382   2.5441   2.5463
  2.5631   2.5693   2.5955   2.6329   2.6409   2.6460   2.6531   2.6641
  2.6804   2.6843   2.6845   2.7003   2.7018   2.7261   2.7439   2.7699
  2.7822   2.7900   2.7996   2.8174   2.8538   2.8628   2.8649   2.9116
  2.9258   2.9350   2.9712   2.9912   3.0016   3.0329   3.0623   3.1163
  3.1444   3.1705   3.2667   3.2900   3.3430   3.4579   3.4849   3.4955
  4.0601   4.0619   4.0875   4.1209   4.1292   4.1342   4.1390   4.1537
  4.1542   4.1858   4.2473   4.2494   4.2877   4.2990   4.3333   4.3478
  4.3570   4.3870   4.3986   4.4793   4.4886   4.5654   4.7251   4.8049
  4.8131   4.8420   5.2854
 --------------------------------------------------------------
 
          Ground-State Mulliken Net Atomic Charges

     Atom                 Charge (a.u.)
  ----------------------------------------
      1 C                    -0.213302
      2 O                    -0.507016
      3 C                     0.378910
      4 C                    -0.205746
      5 C                    -0.174049
      6 C                     0.273028
      7 N                    -0.655771
      8 C                     0.306364
      9 C                    -0.181063
     10 C                    -0.206062
     11 C                     0.197350
     12 C                    -0.298468
     13 C                     0.533340
     14 F                    -0.239816
     15 F                    -0.254296
     16 C                    -0.205890
     17 C                    -0.181165
     18 C                     0.272696
     19 C                    -0.173551
     20 C                    -0.205625
     21 C                     0.379063
     22 O                    -0.507030
     23 C                    -0.213463
     24 C                    -0.184021
     25 C                    -0.164688
     26 C                    -0.165112
     27 C                    -0.184139
     28 H                     0.168754
     29 H                     0.148900
     30 H                     0.149602
     31 H                     0.131938
     32 H                     0.147888
     33 H                     0.147353
     34 H                     0.137403
     35 H                     0.154856
     36 H                     0.125800
     37 H                     0.146461
     38 H                     0.148052
     39 H                     0.132238
     40 H                     0.168746
     41 H                     0.149466
     42 H                     0.149467
     43 H                     0.138349
     44 H                     0.147895
     45 H                     0.147975
     46 H                     0.138380
  ----------------------------------------
  Sum of atomic charges =     0.000000

 -----------------------------------------------------------------
                    Cartesian Multipole Moments
 -----------------------------------------------------------------
    Charge (ESU x 10^10)
                 0.0000
    Dipole Moment (Debye)
         X      -1.3021      Y      -0.3322      Z       0.3754
       Tot       1.3953
    Quadrupole Moments (Debye-Ang)
        XX    -165.2990     XY       6.6628     YY    -124.0499
        XZ       4.1830     YZ       7.3638     ZZ    -152.4504
    Octopole Moments (Debye-Ang^2)
       XXX     -24.1717    XXY     -27.9247    XYY     -17.7544
       YYY      25.9154    XXZ      -4.6003    XYZ     -27.7924
       YYZ      11.7809    XZZ      20.0758    YZZ      -1.5885
       ZZZ      -8.6474
    Hexadecapole Moments (Debye-Ang^3)
      XXXX  -10403.1497   XXXY     154.9022   XXYY   -2653.0550
      XYYY     229.2162   YYYY   -6114.2033   XXXZ      56.5097
      XXYZ      42.2162   XYYZ      59.8171   YYYZ     245.0946
      XXZZ   -1664.2390   XYZZ     -17.2837   YYZZ   -1317.9538
      XZZZ     -36.4996   YZZZ      -0.3312   ZZZZ    -511.5291
 -----------------------------------------------------------------
Archival summary:
1\1\nia2015.scinet.local\SP\ProcedureUnspecified\6-31G*\2212219\rhickman\TueFeb815:17:522022TueFeb815:17:522022\0\\#,ProcedureUnspecified,6-31G*,\\0,1\N\C,1,1.38708\C,2,1.39877,1,120.885\H,3,1.07979,2,119.41,1,-0.584374,0\C,3,1.37556,2,120.532,1,-179.924,0\H,5,1.08043,3,119.252,2,179.475,0\C,5,1.39868,3,121.441,2,0.106448,0\C,7,1.39816,5,117.845,3,-0.159027,0\H,8,1.07757,7,120.268,5,-179.301,0\C,8,1.3763,7,120.948,5,0.0648484,0\H,10,1.07972,8,119.756,7,-179.27,0\C,1,1.40393,2,120.655,3,-31.4204,0\C,12,1.39075,1,120.848,2,-40.0692,0\H,13,1.08008,12,119.517,1,0.0786403,0\C,13,1.38335,12,120.986,1,-179.835,0\H,15,1.07849,13,118.706,12,-179.929,0\C,15,1.39036,13,120.154,12,0.660945,0\O,17,1.36347,15,125.15,13,179.803,0\C,12,1.39561,1,120.458,2,140.716,0\H,19,1.07963,12,119.494,1,-0.629492,0\C,19,1.37618,12,120.464,1,179.292,0\H,21,1.07828,19,120.893,12,179.97,0\C,1,1.40436,2,120.585,3,148.582,0\C,23,1.39067,1,120.824,2,-40.1599,0\H,24,1.08006,23,119.531,1,0.0982702,0\C,24,1.38328,23,120.978,1,-179.891,0\H,26,1.07845,24,118.703,23,-179.87,0\C,26,1.3904,24,120.152,23,0.672596,0\O,28,1.36324,26,125.145,24,179.799,0\C,23,1.39547,1,120.463,2,140.596,0\H,30,1.07964,23,119.503,1,-0.627591,0\C,30,1.37621,23,120.453,1,179.336,0\H,32,1.07827,30,120.892,23,179.936,0\C,18,1.40608,17,118.492,15,-0.246755,0\H,34,1.08888,18,105.705,17,179.926,0\H,34,1.095,18,111.597,17,-61.4312,0\H,34,1.09505,18,111.598,17,61.2838,0\C,29,1.4062,28,118.488,26,0.20066,0\H,38,1.08886,29,105.701,28,179.661,0\H,38,1.09498,29,111.59,28,61.0148,0\H,38,1.09502,29,111.598,28,-61.7021,0\C,7,1.44977,5,118.369,3,179.842,0\H,42,1.08081,7,116.442,5,0.758038,0\C,42,1.32579,7,128.694,5,-179.106,0\F,44,1.33042,42,128.199,7,-0.033145,0\F,44,1.33537,42,123.07,7,179.909,0\\\@

 Total job time:  141.63s(wall), 140.97s(cpu) 
 Tue Feb  8 15:17:52 2022

        *************************************************************
        *                                                           *
        *  Thank you very much for using Q-Chem.  Have a nice day.  *
        *                                                           *
        *************************************************************


