
Running Job 1 of 1 fragments/C147/conf-3/spe_input.inp
qchem fragments/C147/conf-3/spe_input.inp_245971.0 /gpfs/fs0/scratch/a/aspuru/rhickman/descriptor_computation/qchem245971/ 0
/scinet/niagara/software/commercial/qc52/exe/qcprog.exe_s fragments/C147/conf-3/spe_input.inp_245971.0 /gpfs/fs0/scratch/a/aspuru/rhickman/descriptor_computation/qchem245971/
                  Welcome to Q-Chem
     A Quantum Leap Into The Future Of Chemistry


 Q-Chem 5.2, Q-Chem, Inc., Pleasanton, CA (2019)

 License issued to: SRG Alan Aspuru-Guzik, University of Toronto

 Yihan Shao,  Zhengting Gan,  E. Epifanovsky,  A. T. B. Gilbert,  M. Wormit,  
 J. Kussmann,  A. W. Lange,  A. Behn,  Jia Deng,  Xintian Feng,  D. Ghosh,  
 M. Goldey,  P. R. Horn,  L. D. Jacobson,  I. Kaliman,  T. Kus,  A. Landau,  
 Jie Liu,  E. I. Proynov,  R. M. Richard,  R. P. Steele,  E. J. Sundstrom,  
 H. L. Woodcock III,  P. M. Zimmerman,  D. Zuev,  B. Albrecht,  E. Alguire,  
 S. A. Baeppler,  D. Barton,  Z. Benda,  Y. A. Bernard,  E. J. Berquist,  
 K. B. Bravaya,  H. Burton,  D. Casanova,  Chun-Min Chang,  Yunqing Chen,  
 A. Chien,  K. D. Closser,  M. P. Coons,  S. Coriani,  S. Dasgupta,  
 A. L. Dempwolff,  M. Diedenhofen,  Hainam Do,  R. G. Edgar,  Po-Tung Fang,  
 S. Faraji,  S. Fatehi,  Qingguo Feng,  K. D. Fenk,  J. Fosso-Tande,  
 J. Gayvert,  Qinghui Ge,  A. Ghysels,  G. Gidofalvi,  J. Gomes,  
 J. Gonthier,  A. Gunina,  D. Hait,  M. W. D. Hanson-Heine,  
 P. H. P. Harbach,  A. W. Hauser,  M. F. Herbst,  J. E. Herr,  
 E. G. Hohenstein,  Z. C. Holden,  Kerwin Hui,  B. C. Huynh,  T.-C. Jagau,  
 Hyunjun Ji,  B. Kaduk,  K. Khistyaev,  Jaehoon Kim,  P. Klunzinger,  K. Koh,  
 D. Kosenkov,  L. Koulias,  T. Kowalczyk,  C. M. Krauter,  A. Kunitsa,  
 Ka Un Lao,  A. Laurent,  K. V. Lawler,  Joonho Lee,  D. Lefrancois,  
 S. Lehtola,  D. S. Levine,  Yi-Pei Li,  You-Sheng Lin,  Fenglai Liu,  
 E. Livshits,  A. Luenser,  P. Manohar,  E. Mansoor,  S. F. Manzer,  
 Shan-Ping Mao,  Yuezhi Mao,  N. Mardirossian,  A. V. Marenich,  
 T. Markovich,  L. A. Martinez-Martinez,  S. A. Maurer,  N. J. Mayhall,  
 S. C. McKenzie,  J.-M. Mewes,  P. Morgante,  A. F. Morrison,  
 J. W. Mullinax,  K. Nanda,  T. S. Nguyen-Beck,  R. Olivares-Amaya,  
 J. A. Parkhill,  Zheng Pei,  T. M. Perrine,  F. Plasser,  P. Pokhilko,  
 S. Prager,  A. Prociuk,  E. Ramos,  D. R. Rehn,  F. Rob,  M. Scheurer,  
 M. Schneider,  N. Sergueev,  S. M. Sharada,  S. Sharma,  D. W. Small,  
 T. Stauch,  T. Stein,  Yu-Chuan Su,  A. J. W. Thom,  A. Tkatchenko,  
 T. Tsuchimochi,  N. M. Tubman,  L. Vogt,  M. L. Vidal,  O. Vydrov,  
 M. A. Watson,  J. Wenzel,  M. de Wergifosse,  T. A. Wesolowski,  A. White,  
 J. Witte,  A. Yamada,  Jun Yang,  K. Yao,  S. Yeganeh,  S. R. Yost,  
 Zhi-Qiang You,  A. Zech,  Igor Ying Zhang,  Xing Zhang,  Yan Zhao,  
 Ying Zhu,  B. R. Brooks,  G. K. L. Chan,  C. J. Cramer,  M. S. Gordon,  
 W. J. Hehre,  A. Klamt,  M. W. Schmidt,  C. D. Sherrill,  D. G. Truhlar,  
 A. Aspuru-Guzik,  R. Baer,  A. T. Bell,  N. A. Besley,  Jeng-Da Chai,  
 A. E. DePrince, III,  R. A. DiStasio Jr.,  A. Dreuw,  B. D. Dunietz,  
 T. R. Furlani,  Chao-Ping Hsu,  Yousung Jung,  Jing Kong,  D. S. Lambrecht,  
 WanZhen Liang,  C. Ochsenfeld,  V. A. Rassolov,  L. V. Slipchenko,  
 J. E. Subotnik,  T. Van Voorhis,  J. M. Herbert,  A. I. Krylov,  
 P. M. W. Gill,  M. Head-Gordon

 Contributors to earlier versions of Q-Chem not listed above: 
 R. D. Adamson,  B. Austin,  J. Baker,  G. J. O. Beran,  K. Brandhorst,  
 S. T. Brown,  E. F. C. Byrd,  A. K. Chakraborty,  C.-L. Cheng,  
 Siu Hung Chien,  D. M. Chipman,  D. L. Crittenden,  H. Dachsel,  
 R. J. Doerksen,  A. D. Dutoi,  L. Fusti-Molnar,  W. A. Goddard III,  
 A. Golubeva-Zadorozhnaya,  S. R. Gwaltney,  G. Hawkins,  A. Heyden,  
 S. Hirata,  G. Kedziora,  F. J. Keil,  C. Kelley,  Jihan Kim,  R. A. King,  
 R. Z. Khaliullin,  P. P. Korambath,  W. Kurlancheek,  A. M. Lee,  M. S. Lee,  
 S. V. Levchenko,  Ching Yeh Lin,  D. Liotard,  R. C. Lochan,  I. Lotan,  
 P. E. Maslen,  N. Nair,  D. P. O'Neill,  D. Neuhauser,  E. Neuscamman,  
 C. M. Oana,  R. Olson,  B. Peters,  R. Peverati,  P. A. Pieniazek,  
 Y. M. Rhee,  J. Ritchie,  M. A. Rohrdanz,  E. Rosta,  N. J. Russ,  
 H. F. Schaefer III,  N. E. Schultz,  N. Shenvi,  A. C. Simmonett,  A. Sodt,  
 D. Stuck,  K. S. Thanthiriwatte,  V. Vanovschi,  Tao Wang,  A. Warshel,  
 C. F. Williams,  Q. Wu,  X. Xu,  W. Zhang

 Please cite Q-Chem as follows:
 Y. Shao et al., Mol. Phys. 113, 184-215 (2015)
 DOI: 10.1080/00268976.2014.952696

 Q-Chem 5.2.1 for Intel X86 EM64T Linux

 Parts of Q-Chem use Armadillo 8.300.2 (Tropical Shenanigans).
 http://arma.sourceforge.net/

 Q-Chem begins on Mon Feb  7 08:15:45 2022  

Host: 
0

     Scratch files written to /gpfs/fs0/scratch/a/aspuru/rhickman/descriptor_computation/qchem245971//
 Jul1719 |scratch|qcdevops|jenkins|workspace|build_RNUM -1
Processing $rem in /scinet/niagara/software/commercial/qc52/config/preferences:
	 MEM_TOTAL  4000 
NAlpha2: 98
NElect   98
Mult     1

Checking the input file for inconsistencies... 	...done.

--------------------------------------------------------------
User input:
--------------------------------------------------------------
$molecule
0 1
C        -3.51496325970000    1.45769729800000   -0.57787264660000
C        -2.53039472370000    1.47427777250000    0.30833244960000
C        -1.29804342670000    0.68651136270000    0.20700745850000
C        -0.11431138180000    1.33987113320000    0.45912792330000
C         1.10103407180000    0.67642925510000    0.24501937730000
N         2.33684226620000    1.14753757940000    0.41828896130000
S         3.38300233200000   -0.00082331550000    0.00111627180000
N         2.33639671260000   -1.14846708410000   -0.41731592910000
C         1.10081518480000   -0.67628158690000   -0.24563832200000
C        -0.11485641040000   -1.33888275630000   -0.46073233600000
C        -1.29822460460000   -0.68478159910000   -0.20923061250000
C        -2.53102074510000   -1.47218746860000   -0.31028073950000
C        -3.51187586740000   -1.45940554540000    0.58003206560000
H        -4.37066600550000    2.10372500770000   -0.48191899500000
H        -3.50148833580000    0.80295259020000   -1.43273897160000
H        -2.55901060640000    2.17682897830000    1.13222515850000
H        -0.10488720390000    2.36848704920000    0.78523116870000
H        -0.10596176190000   -2.36755514700000   -0.78668869470000
H        -2.56279493640000   -2.17086139500000   -1.13732595060000
H        -3.49445623820000   -0.80830589040000    1.43759622700000
H        -4.36808977210000   -2.10486968460000    0.48506319060000
$end

$rem
BASIS = 6-31G*
GUI = 2
METHOD = B3LYP
PRINT_ORBITALS false
MOLDEN_FORMAT false
--------------------------------------------------------------
 ----------------------------------------------------------------
             Standard Nuclear Orientation (Angstroms)
    I     Atom           X                Y                Z
 ----------------------------------------------------------------
    1      C      -3.4081519364    -1.3553765886     0.7871946309
    2      C      -2.4234526808    -1.5033959509    -0.0865714883
    3      C      -1.1909971278    -0.7094726253    -0.1030473008
    4      C      -0.0073263269    -1.3931610750    -0.2552274945
    5      C       1.2080875614    -0.7054488322    -0.1417236712
    6      N       2.4438503052    -1.1972099513    -0.2429597222
    7      S       3.4901218472     0.0002059515    -0.0006217406
    8      N       2.4436274535     1.1973668616     0.2427099015
    9      C       1.2080001286     0.7050923820     0.1427848936
   10      C      -0.0076032521     1.3924299592     0.2569717906
   11      C      -1.1910328418     0.7084024870     0.1051082095
   12      C      -2.4237246834     1.5022433491     0.0879919984
   13      C      -3.4044478473     1.3576220211    -0.7907365073
   14      H      -4.2639382499    -2.0083813407     0.7880153766
   15      H      -3.3947062200    -0.5810349581     1.5354478578
   16      H      -2.4520512664    -2.3204170148    -0.7971029537
   17      H       0.0019908246    -2.4587793422    -0.4250913921
   18      H       0.0013984531     2.4580799409     0.4266851841
   19      H      -2.4555172328     2.3159055420     0.8022060458
   20      H      -3.3869980526     0.5864808373    -1.5421932756
   21      H      -4.2605780827     2.0101419797    -0.7927406138
 ----------------------------------------------------------------
 Molecular Point Group                 C1    NOp =  1
 Largest Abelian Subgroup              C1    NOp =  1
 Nuclear Repulsion Energy =         812.44967913 hartrees
 There are       49 alpha and       49 beta electrons
 Requested basis set is 6-31G(d)
 There are 69 shells and 215 basis functions

 Total QAlloc Memory Limit   4000 MB
 Mega-Array Size       188 MB
 MEM_STATIC part       192 MB
 A cutoff of  1.0D-08 yielded   1716 shell pairs
 There are     17940 function pairs
 Smallest overlap matrix eigenvalue = 3.25E-04

 Scale SEOQF with 1.000000e-01/1.000000e-01/1.000000e-01

 Standard Electronic Orientation quadrupole field applied
 Nucleus-field energy     =     0.0000000291 hartrees
 Guess from superposition of atomic densities
 Warning:  Energy on first SCF cycle will be non-variational
 SAD guess density has 98.000000 electrons

 -----------------------------------------------------------------------
  General SCF calculation program by
  Eric Jon Sundstrom, Paul Horn, Yuezhi Mao, Dmitri Zuev, Alec White,
  David Stuck, Shaama M.S., Shane Yost, Joonho Lee, David Small,
  Daniel Levine, Susi Lehtola, Hugh Burton, Evgeny Epifanovsky,
  Bang C. Huynh
 -----------------------------------------------------------------------
 Exchange:     0.2000 Hartree-Fock + 0.0800 Slater + 0.7200 B88
 Correlation:  0.1900 VWN1RPA + 0.8100 LYP
 Using SG-1 standard quadrature grid
 A restricted SCF calculation will be
 performed using DIIS
 SCF converges when DIIS error is below 1.0e-05
 ---------------------------------------
  Cycle       Energy         DIIS error
 ---------------------------------------
    1    -896.8513322691      5.66e-02  
    2    -893.2628046970      6.05e-03  
    3    -893.0498740786      8.17e-03  
    4    -893.4774953191      1.67e-03  
    5    -893.4931586206      8.17e-04  
    6    -893.4967422607      2.93e-04  
    7    -893.4972205081      7.90e-05  
    8    -893.4972591706      2.29e-05  
    9    -893.4972619089      7.81e-06  Convergence criterion met
 ---------------------------------------
 SCF time:   CPU 36.56s  wall 37.00s 
 SCF   energy in the final basis set =     -893.4972619089
 Total energy in the final basis set =     -893.4972619089
 
 --------------------------------------------------------------
 
                    Orbital Energies (a.u.)
 --------------------------------------------------------------
 
 Alpha MOs
 -- Occupied --
-88.9694 -14.3579 -14.3578 -10.2346 -10.2342 -10.2149 -10.2145 -10.2019
-10.2018 -10.1968 -10.1968 -10.1868 -10.1867  -8.0257  -5.9909  -5.9851
 -5.9834  -1.0247  -0.8863  -0.8776  -0.8044  -0.7958  -0.7417  -0.7410
 -0.6518  -0.6379  -0.6064  -0.5717  -0.5641  -0.5087  -0.5029  -0.4843
 -0.4663  -0.4520  -0.4491  -0.4329  -0.4134  -0.4054  -0.3856  -0.3644
 -0.3637  -0.3595  -0.3298  -0.3146  -0.2991  -0.2884  -0.2864  -0.2326
 -0.2292
 -- Virtual --
 -0.0831  -0.0308   0.0056   0.0161   0.0301   0.0559   0.0883   0.1124
  0.1144   0.1332   0.1441   0.1582   0.1622   0.1754   0.1866   0.2053
  0.2475   0.2512   0.2721   0.2960   0.3023   0.3157   0.3295   0.3336
  0.3370   0.3630   0.3666   0.3954   0.4087   0.4468   0.4779   0.4946
  0.4953   0.5164   0.5240   0.5279   0.5537   0.5541   0.5568   0.5724
  0.5738   0.5924   0.6110   0.6309   0.6342   0.6441   0.6504   0.6655
  0.6745   0.6895   0.6941   0.7268   0.7418   0.7435   0.7490   0.7747
  0.7951   0.7987   0.8055   0.8391   0.8425   0.8625   0.8687   0.8754
  0.8806   0.8834   0.8966   0.9204   0.9473   0.9608   0.9712   0.9881
  1.0021   1.0103   1.0153   1.0444   1.0515   1.0899   1.1047   1.1146
  1.1417   1.1457   1.1699   1.1723   1.2613   1.2721   1.2804   1.3049
  1.3347   1.3368   1.3826   1.4105   1.4113   1.4497   1.4952   1.5184
  1.5261   1.5813   1.6192   1.6603   1.6805   1.7032   1.7201   1.7552
  1.7875   1.7999   1.8131   1.8638   1.8742   1.8927   1.9105   1.9159
  1.9203   1.9418   1.9691   1.9905   2.0019   2.0254   2.0822   2.1035
  2.1280   2.1548   2.1944   2.1959   2.2565   2.2694   2.3061   2.3108
  2.3193   2.3520   2.3701   2.3971   2.4023   2.4382   2.4783   2.4987
  2.5478   2.5721   2.5948   2.6468   2.6646   2.6832   2.7333   2.7552
  2.7636   2.8152   2.9121   2.9345   2.9360   2.9883   3.0607   3.2571
  3.4494   3.8711   3.9756   4.0024   4.1040   4.1135   4.1371   4.1824
  4.2038   4.2868   4.3133   4.4159   4.4906   4.7943
 --------------------------------------------------------------
 
          Ground-State Mulliken Net Atomic Charges

     Atom                 Charge (a.u.)
  ----------------------------------------
      1 C                    -0.308557
      2 C                    -0.154331
      3 C                     0.097749
      4 C                    -0.204304
      5 C                     0.255872
      6 N                    -0.563983
      7 S                     0.577945
      8 N                    -0.564231
      9 C                     0.255862
     10 C                    -0.204005
     11 C                     0.097192
     12 C                    -0.154867
     13 C                    -0.308156
     14 H                     0.146785
     15 H                     0.151890
     16 H                     0.140452
     17 H                     0.149727
     18 H                     0.149734
     19 H                     0.140574
     20 H                     0.151862
     21 H                     0.146792
  ----------------------------------------
  Sum of atomic charges =     0.000000

 -----------------------------------------------------------------
                    Cartesian Multipole Moments
 -----------------------------------------------------------------
    Charge (ESU x 10^10)
                -0.0000
    Dipole Moment (Debye)
         X      -2.3490      Y      -0.0007      Z      -0.0003
       Tot       2.3490
    Quadrupole Moments (Debye-Ang)
        XX     -75.4726     XY      -0.0110     YY     -80.9748
        XZ      -0.0027     YZ       1.5219     ZZ     -81.1800
    Octopole Moments (Debye-Ang^2)
       XXX       3.6137    XXY       0.0306    XYY     -18.2577
       YYY      -0.0453    XXZ       0.0044    XYZ      -5.8765
       YYZ       0.0005    XZZ       1.8243    YZZ       0.0301
       ZZZ      -0.0272
    Hexadecapole Moments (Debye-Ang^3)
      XXXX   -2743.1415   XXXY      -0.0907   XXYY    -614.8235
      XYYY       0.0504   YYYY    -732.2357   XXXZ      -0.1106
      XXYZ      -9.1727   XYYZ       0.0133   YYYZ      18.8985
      XXZZ    -508.9228   XYZZ      -0.0940   YYZZ    -157.7224
      XZZZ       0.0563   YZZZ       3.2874   ZZZZ    -166.0535
 -----------------------------------------------------------------
Archival summary:
1\1\nia0005.scinet.local\SP\ProcedureUnspecified\6-31G*\12108\rhickman\MonFeb708:16:222022MonFeb708:16:222022\0\\#,ProcedureUnspecified,6-31G*,\\0,1\S\N,1,1.60848\C,2,1.33386,1,108.466\C,3,1.40109,2,128.066,1,-178.725,0\H,4,1.07911,3,119.338,2,1.44189,0\C,4,1.37538,3,119.578,2,179.221,0\C,6,1.43307,4,120.525,3,3.05708,0\C,7,1.3753,6,120.538,4,-4.94236,0\H,8,1.07912,7,121.044,6,-179.211,0\C,8,1.40113,7,119.575,6,3.07454,0\N,10,1.33383,8,128.065,7,179.17,0\C,6,1.46613,4,117.098,3,-173.509,0\H,12,1.08314,6,115.042,4,-40.0239,0\C,12,1.32477,6,124.872,4,134.046,0\H,14,1.07647,12,121.577,6,-176.168,0\H,14,1.07688,12,121.961,6,3.56313,0\C,7,1.46629,6,122.275,4,171.397,0\H,17,1.08312,7,115.067,6,143.143,0\C,17,1.32473,7,124.821,6,-42.8034,0\H,19,1.07645,17,121.591,7,-176.139,0\H,19,1.07687,17,121.942,7,3.58586,0\\\@

 Total job time:  36.89s(wall), 36.75s(cpu) 
 Mon Feb  7 08:16:22 2022

        *************************************************************
        *                                                           *
        *  Thank you very much for using Q-Chem.  Have a nice day.  *
        *                                                           *
        *************************************************************


