17
 energy: -32.839720872756 gnorm: 0.000067011702 xtb: 6.4.1 (23d549d)
C         3.74530847590000    1.23546503090000   -0.00672086980000
C         3.41023248470000   -0.05184391720000   -0.00149156440000
C         2.06298365880000   -0.55169506320000    0.00155442410000
C         1.67191662390000   -1.86914039710000    0.00667523240000
C         0.28327788760000   -2.03804824540000    0.00798536910000
C        -0.40633829890000   -0.84863261870000    0.00405368290000
C        -1.83248208410000   -0.70621092150000    0.00385037120000
C        -2.51003642010000    0.43670917300000   -0.00107784350000
F        -1.99725594640000    1.66106809080000   -0.00606687030000
F        -3.83859954670000    0.50756651900000   -0.00120769380000
S         0.68350455960000    0.50397646970000   -0.00159836890000
H         4.77290559270000    1.55240537860000   -0.00925998270000
H         2.99636339420000    2.01032527070000   -0.00870364480000
H         4.17525887300000   -0.81808066880000    0.00049561450000
H         2.37210115230000   -2.68561561500000    0.00922315820000
H        -0.20531153250000   -2.99613763340000    0.01170607420000
H        -2.41398698950000   -1.61591043600000    0.00778993960000
