26
 energy: -48.712778818213 gnorm: 0.000074180976 xtb: 6.5.0 (unknown)
C            2.11165909520000       -3.75086619720000       -0.76885160200000
C            1.12269419460000       -3.24927654660000       -0.04328634110000
C            0.71415269740000       -1.84113750620000       -0.03390114560000
C           -0.62496262820000       -1.55809091620000       -0.15181951760000
C           -1.12094637790000       -0.24168312170000       -0.23588539060000
C           -2.55998989300000       -0.03891215730000       -0.37219784890000
C           -3.26318696740000        0.95204234490000        0.15301431150000
F           -2.82857380290000        1.92243966480000        0.93772990930000
F           -4.57947780350000        1.07220315520000       -0.00647758280000
C           -0.20477846560000        0.78568809950000       -0.22170430870000
F           -0.61765446730000        2.05602502860000       -0.40636853700000
C            1.17791246690000        0.56502647800000       -0.05340330150000
C            2.09039517190000        1.63939388650000        0.00794755690000
C            3.41999096790000        1.40727664600000        0.21926344480000
C            3.88294260780000        0.09644745660000        0.39929460130000
C            3.02056822120000       -0.96368650370000        0.32766174690000
C            1.64853359140000       -0.77028179400000        0.06931580890000
H            2.33825551990000       -4.80352948840000       -0.76041715710000
H            2.71401757060000       -3.13601745250000       -1.41666304610000
H            0.50252215120000       -3.91084548460000        0.54916130180000
H           -1.33521774850000       -2.37060537970000       -0.20265445360000
H           -3.11239655190000       -0.78122128730000       -0.92824782250000
H            1.71263457140000        2.64468737520000       -0.10118371780000
H            4.11591867120000        2.23113510110000        0.26804911900000
H            4.93007986940000       -0.07267635190000        0.60254619120000
H            3.38390641010000       -1.96606386830000        0.49166349310000
