
Running Job 1 of 1 fragments/A004/conf-3/spe_input.inp
qchem fragments/A004/conf-3/spe_input.inp_187145.0 /gpfs/fs0/scratch/a/aspuru/rhickman/descriptor_computation/qchem187145/ 0
/scinet/niagara/software/commercial/qc52/exe/qcprog.exe_s fragments/A004/conf-3/spe_input.inp_187145.0 /gpfs/fs0/scratch/a/aspuru/rhickman/descriptor_computation/qchem187145/
                  Welcome to Q-Chem
     A Quantum Leap Into The Future Of Chemistry


 Q-Chem 5.2, Q-Chem, Inc., Pleasanton, CA (2019)

 License issued to: SRG Alan Aspuru-Guzik, University of Toronto

 Yihan Shao,  Zhengting Gan,  E. Epifanovsky,  A. T. B. Gilbert,  M. Wormit,  
 J. Kussmann,  A. W. Lange,  A. Behn,  Jia Deng,  Xintian Feng,  D. Ghosh,  
 M. Goldey,  P. R. Horn,  L. D. Jacobson,  I. Kaliman,  T. Kus,  A. Landau,  
 Jie Liu,  E. I. Proynov,  R. M. Richard,  R. P. Steele,  E. J. Sundstrom,  
 H. L. Woodcock III,  P. M. Zimmerman,  D. Zuev,  B. Albrecht,  E. Alguire,  
 S. A. Baeppler,  D. Barton,  Z. Benda,  Y. A. Bernard,  E. J. Berquist,  
 K. B. Bravaya,  H. Burton,  D. Casanova,  Chun-Min Chang,  Yunqing Chen,  
 A. Chien,  K. D. Closser,  M. P. Coons,  S. Coriani,  S. Dasgupta,  
 A. L. Dempwolff,  M. Diedenhofen,  Hainam Do,  R. G. Edgar,  Po-Tung Fang,  
 S. Faraji,  S. Fatehi,  Qingguo Feng,  K. D. Fenk,  J. Fosso-Tande,  
 J. Gayvert,  Qinghui Ge,  A. Ghysels,  G. Gidofalvi,  J. Gomes,  
 J. Gonthier,  A. Gunina,  D. Hait,  M. W. D. Hanson-Heine,  
 P. H. P. Harbach,  A. W. Hauser,  M. F. Herbst,  J. E. Herr,  
 E. G. Hohenstein,  Z. C. Holden,  Kerwin Hui,  B. C. Huynh,  T.-C. Jagau,  
 Hyunjun Ji,  B. Kaduk,  K. Khistyaev,  Jaehoon Kim,  P. Klunzinger,  K. Koh,  
 D. Kosenkov,  L. Koulias,  T. Kowalczyk,  C. M. Krauter,  A. Kunitsa,  
 Ka Un Lao,  A. Laurent,  K. V. Lawler,  Joonho Lee,  D. Lefrancois,  
 S. Lehtola,  D. S. Levine,  Yi-Pei Li,  You-Sheng Lin,  Fenglai Liu,  
 E. Livshits,  A. Luenser,  P. Manohar,  E. Mansoor,  S. F. Manzer,  
 Shan-Ping Mao,  Yuezhi Mao,  N. Mardirossian,  A. V. Marenich,  
 T. Markovich,  L. A. Martinez-Martinez,  S. A. Maurer,  N. J. Mayhall,  
 S. C. McKenzie,  J.-M. Mewes,  P. Morgante,  A. F. Morrison,  
 J. W. Mullinax,  K. Nanda,  T. S. Nguyen-Beck,  R. Olivares-Amaya,  
 J. A. Parkhill,  Zheng Pei,  T. M. Perrine,  F. Plasser,  P. Pokhilko,  
 S. Prager,  A. Prociuk,  E. Ramos,  D. R. Rehn,  F. Rob,  M. Scheurer,  
 M. Schneider,  N. Sergueev,  S. M. Sharada,  S. Sharma,  D. W. Small,  
 T. Stauch,  T. Stein,  Yu-Chuan Su,  A. J. W. Thom,  A. Tkatchenko,  
 T. Tsuchimochi,  N. M. Tubman,  L. Vogt,  M. L. Vidal,  O. Vydrov,  
 M. A. Watson,  J. Wenzel,  M. de Wergifosse,  T. A. Wesolowski,  A. White,  
 J. Witte,  A. Yamada,  Jun Yang,  K. Yao,  S. Yeganeh,  S. R. Yost,  
 Zhi-Qiang You,  A. Zech,  Igor Ying Zhang,  Xing Zhang,  Yan Zhao,  
 Ying Zhu,  B. R. Brooks,  G. K. L. Chan,  C. J. Cramer,  M. S. Gordon,  
 W. J. Hehre,  A. Klamt,  M. W. Schmidt,  C. D. Sherrill,  D. G. Truhlar,  
 A. Aspuru-Guzik,  R. Baer,  A. T. Bell,  N. A. Besley,  Jeng-Da Chai,  
 A. E. DePrince, III,  R. A. DiStasio Jr.,  A. Dreuw,  B. D. Dunietz,  
 T. R. Furlani,  Chao-Ping Hsu,  Yousung Jung,  Jing Kong,  D. S. Lambrecht,  
 WanZhen Liang,  C. Ochsenfeld,  V. A. Rassolov,  L. V. Slipchenko,  
 J. E. Subotnik,  T. Van Voorhis,  J. M. Herbert,  A. I. Krylov,  
 P. M. W. Gill,  M. Head-Gordon

 Contributors to earlier versions of Q-Chem not listed above: 
 R. D. Adamson,  B. Austin,  J. Baker,  G. J. O. Beran,  K. Brandhorst,  
 S. T. Brown,  E. F. C. Byrd,  A. K. Chakraborty,  C.-L. Cheng,  
 Siu Hung Chien,  D. M. Chipman,  D. L. Crittenden,  H. Dachsel,  
 R. J. Doerksen,  A. D. Dutoi,  L. Fusti-Molnar,  W. A. Goddard III,  
 A. Golubeva-Zadorozhnaya,  S. R. Gwaltney,  G. Hawkins,  A. Heyden,  
 S. Hirata,  G. Kedziora,  F. J. Keil,  C. Kelley,  Jihan Kim,  R. A. King,  
 R. Z. Khaliullin,  P. P. Korambath,  W. Kurlancheek,  A. M. Lee,  M. S. Lee,  
 S. V. Levchenko,  Ching Yeh Lin,  D. Liotard,  R. C. Lochan,  I. Lotan,  
 P. E. Maslen,  N. Nair,  D. P. O'Neill,  D. Neuhauser,  E. Neuscamman,  
 C. M. Oana,  R. Olson,  B. Peters,  R. Peverati,  P. A. Pieniazek,  
 Y. M. Rhee,  J. Ritchie,  M. A. Rohrdanz,  E. Rosta,  N. J. Russ,  
 H. F. Schaefer III,  N. E. Schultz,  N. Shenvi,  A. C. Simmonett,  A. Sodt,  
 D. Stuck,  K. S. Thanthiriwatte,  V. Vanovschi,  Tao Wang,  A. Warshel,  
 C. F. Williams,  Q. Wu,  X. Xu,  W. Zhang

 Please cite Q-Chem as follows:
 Y. Shao et al., Mol. Phys. 113, 184-215 (2015)
 DOI: 10.1080/00268976.2014.952696

 Q-Chem 5.2.1 for Intel X86 EM64T Linux

 Parts of Q-Chem use Armadillo 8.300.2 (Tropical Shenanigans).
 http://arma.sourceforge.net/

 Q-Chem begins on Fri Feb  4 12:10:44 2022  

Host: 
0

     Scratch files written to /gpfs/fs0/scratch/a/aspuru/rhickman/descriptor_computation/qchem187145//
 Jul1719 |scratch|qcdevops|jenkins|workspace|build_RNUM -1
Processing $rem in /scinet/niagara/software/commercial/qc52/config/preferences:
	 MEM_TOTAL  4000 
NAlpha2: 174
NElect   174
Mult     1

Checking the input file for inconsistencies... 	...done.

--------------------------------------------------------------
User input:
--------------------------------------------------------------
$molecule
0 1
C        -1.99339213180000    3.85702382160000   -0.22067259280000
C        -2.87786758110000    2.61888523230000   -0.06818026680000
C        -3.82387782590000    2.48478971820000   -1.26073107300000
O        -1.93229179930000    1.52212890110000   -0.05056919410000
C        -2.35506679390000    0.25986845580000    0.08230330570000
N        -1.28122867220000   -0.60461606540000    0.09485295950000
C         0.04728964800000   -0.14294226800000    0.20425447510000
C         0.41777466420000    0.77318006440000    1.18448915690000
C         1.72502320350000    1.20078068320000    1.27143634960000
C         2.70439370630000    0.72252436090000    0.39673018530000
C         4.06125831640000    1.21813306140000    0.55037769630000
C         5.13904648730000    0.90811873960000   -0.15577574620000
F         5.23551909470000    0.06526039110000   -1.17720005090000
F         6.33968565450000    1.43412497780000    0.08265790060000
C         2.32570109380000   -0.20869621200000   -0.57310283280000
C         1.01714158900000   -0.63349312440000   -0.66658571020000
C        -1.48709449290000   -2.00142701070000   -0.01174970500000
C        -2.43992065000000   -2.52649652350000   -0.87613944820000
C        -2.61370081450000   -3.89635953640000   -0.95769236810000
C        -1.83582879300000   -4.75040557460000   -0.19495032860000
C        -0.88043705170000   -4.22721749380000    0.66030025200000
C        -0.70694312590000   -2.85971904290000    0.75758771640000
O        -3.50141916590000   -0.10312572980000    0.16657523460000
C        -3.65533744540000    2.67214157690000    1.24645350050000
H        -1.41611513450000    3.79031689850000   -1.13893331310000
H        -1.30121800950000    3.92669548100000    0.61431261910000
H        -2.60799649600000    4.75161015460000   -0.24961934620000
H        -3.25179645880000    2.39717988920000   -2.18211630280000
H        -4.46011656750000    3.36308410160000   -1.32289402660000
H        -4.44884689200000    1.60327077760000   -1.14785545110000
H        -0.32110020680000    1.14375063690000    1.87747368460000
H         2.00034125370000    1.91147505130000    2.03691035340000
H         4.22524415060000    1.93578549090000    1.34147026410000
H         3.05170974760000   -0.60251826300000   -1.26486567390000
H         0.73475219890000   -1.35329571690000   -1.42035752430000
H        -3.04657614940000   -1.86558718230000   -1.47342923390000
H        -3.35810042270000   -4.29770167450000   -1.62896747360000
H        -1.97306964690000   -5.81884313280000   -0.26566248490000
H        -0.27078938500000   -4.88574061720000    1.26099613150000
H         0.03297858530000   -2.44994039360000    1.42952634720000
H        -4.30323783420000    3.54403909390000    1.25174729180000
H        -2.96794025340000    2.74035992220000    2.08730667880000
H        -4.26421123530000    1.77944453600000    1.36041328360000
$end

$rem
BASIS = 6-31G*
GUI = 2
METHOD = B3LYP
PRINT_ORBITALS false
MOLDEN_FORMAT false
--------------------------------------------------------------
 ----------------------------------------------------------------
             Standard Nuclear Orientation (Angstroms)
    I     Atom           X                Y                Z
 ----------------------------------------------------------------
    1      C      -1.3755229591    -4.0229018230     0.4087260761
    2      C      -2.4103397888    -2.9175754892     0.1943765462
    3      C      -3.3756903385    -2.8493377254     1.3769738316
    4      O      -1.6132939279    -1.7103978117     0.1255426178
    5      C      -2.1935094627    -0.5208407866    -0.0693913356
    6      N      -1.2394873430     0.4730073071    -0.1216125460
    7      C       0.1381806378     0.1813777998    -0.2056094445
    8      C       0.6314198907    -0.7253557540    -1.1393913293
    9      C       1.9834320415    -0.9848955850    -1.2026611257
   10      C       2.8859313850    -0.3432786292    -0.3501183512
   11      C       4.2964376163    -0.6669941375    -0.4765997852
   12      C       5.3195494090    -0.1874376293     0.2159727528
   13      F       5.2984481086     0.7087721195     1.1954560815
   14      F       6.5797416644    -0.5654219350     0.0059467533
   15      C       2.3827013315     0.5768561534     0.5725231979
   16      C       1.0296943622     0.8337631829     0.6424543206
   17      C      -1.6238776512     1.8352156085    -0.0834246459
   18      C      -2.6434383404     2.2741323366     0.7523943620
   19      C      -2.9923399557     3.6125759059     0.7669399214
   20      C      -2.3242013471     4.5220790704    -0.0347144489
   21      C      -1.3024144977     4.0857937307    -0.8614909843
   22      C      -0.9539685755     2.7489019304    -0.8918679471
   23      O      -3.3762339167    -0.3127968350    -0.1736548361
   24      C      -3.1635004170    -3.1333112426    -1.1177837805
   25      H      -0.8192988538    -3.8385812535     1.3238992662
   26      H      -0.6731645757    -4.0428564429    -0.4204023665
   27      H      -1.8704009637    -4.9867012417     0.4797724494
   28      H      -2.8273286616    -2.6448309104     2.2942413761
   29      H      -3.8943928468    -3.7981918416     1.4803593580
   30      H      -4.1077015726    -2.0619721496     1.2200729535
   31      H      -0.0479308987    -1.2206634890    -1.8151419729
   32      H       2.3541210981    -1.6901035048    -1.9321187169
   33      H       4.5578277829    -1.3946440448    -1.2315465432
   34      H       3.0463177166     1.0934815005     1.2458966054
   35      H       0.6509212931     1.5465229153     1.3597659778
   36      H      -3.1651958003     1.5700402585     1.3797783265
   37      H      -3.7877034827     3.9465016206     1.4163296600
   38      H      -2.5980751917     5.5661323583    -0.0162773625
   39      H      -0.7773548414     4.7877439924    -1.4921546893
   40      H      -0.1619569654     2.4060117156    -1.5415202493
   41      H      -3.6940240694    -4.0805600600    -1.0821109554
   42      H      -2.4660167156    -3.1527218945    -1.9528540904
   43      H      -3.8809762907    -2.3328546652    -1.2762759551
 ----------------------------------------------------------------
 Molecular Point Group                 C1    NOp =  1
 Largest Abelian Subgroup              C1    NOp =  1
 Nuclear Repulsion Energy =        2029.45432888 hartrees
 There are       87 alpha and       87 beta electrons
 Requested basis set is 6-31G(d)
 There are 134 shells and 398 basis functions

 Total QAlloc Memory Limit   4000 MB
 Mega-Array Size       188 MB
 MEM_STATIC part       192 MB
 A cutoff of  1.0D-08 yielded   4258 shell pairs
 There are     39951 function pairs
 Smallest overlap matrix eigenvalue = 3.64E-04

 Scale SEOQF with 1.000000e-02/1.000000e-02/1.000000e-01

 Standard Electronic Orientation quadrupole field applied
 Nucleus-field energy     =     0.0000000005 hartrees
 Guess from superposition of atomic densities
 Warning:  Energy on first SCF cycle will be non-variational
 SAD guess density has 174.000000 electrons

 -----------------------------------------------------------------------
  General SCF calculation program by
  Eric Jon Sundstrom, Paul Horn, Yuezhi Mao, Dmitri Zuev, Alec White,
  David Stuck, Shaama M.S., Shane Yost, Joonho Lee, David Small,
  Daniel Levine, Susi Lehtola, Hugh Burton, Evgeny Epifanovsky,
  Bang C. Huynh
 -----------------------------------------------------------------------
 Exchange:     0.2000 Hartree-Fock + 0.0800 Slater + 0.7200 B88
 Correlation:  0.1900 VWN1RPA + 0.8100 LYP
 Using SG-1 standard quadrature grid
 A restricted SCF calculation will be
 performed using DIIS
 SCF converges when DIIS error is below 1.0e-05
 ---------------------------------------
  Cycle       Energy         DIIS error
 ---------------------------------------
    1   -1145.9628029304      4.08e-02  
    2   -1139.8797102753      4.95e-03  
    3   -1139.4007894642      7.34e-03  
    4   -1140.2869937128      1.79e-03  
    5   -1140.3389402369      5.04e-04  
    6   -1140.3425761470      2.36e-04  
    7   -1140.3436508830      5.24e-05  
    8   -1140.3436993970      2.03e-05  
    9   -1140.3437071265      5.94e-06  Convergence criterion met
 ---------------------------------------
 SCF time:   CPU 132.79s  wall 134.00s 
 SCF   energy in the final basis set =    -1140.3437071265
 Total energy in the final basis set =    -1140.3437071265
 
 --------------------------------------------------------------
 
                    Orbital Energies (a.u.)
 --------------------------------------------------------------
 
 Alpha MOs
 -- Occupied --
-24.7455 -24.7348 -19.1838 -19.1204 -14.3768 -10.3573 -10.3347 -10.2552
-10.2307 -10.2270 -10.2073 -10.2044 -10.1943 -10.1926 -10.1919 -10.1911
-10.1861 -10.1853 -10.1849 -10.1830 -10.1825 -10.1773 -10.1716 -10.1703
 -1.2863  -1.2253  -1.1117  -1.0198  -0.9676  -0.8692  -0.8518  -0.8136
 -0.8056  -0.7584  -0.7519  -0.7475  -0.7317  -0.6972  -0.6937  -0.6644
 -0.6465  -0.6216  -0.6201  -0.6061  -0.5894  -0.5730  -0.5566  -0.5414
 -0.5282  -0.5199  -0.5090  -0.4898  -0.4877  -0.4761  -0.4650  -0.4569
 -0.4546  -0.4503  -0.4418  -0.4405  -0.4383  -0.4346  -0.4309  -0.4230
 -0.4204  -0.4158  -0.4114  -0.3965  -0.3906  -0.3831  -0.3794  -0.3725
 -0.3685  -0.3587  -0.3578  -0.3541  -0.3481  -0.3463  -0.3337  -0.3171
 -0.2938  -0.2864  -0.2704  -0.2599  -0.2476  -0.2389  -0.2023
 -- Virtual --
 -0.0327  -0.0080  -0.0020   0.0095   0.0474   0.0728   0.0793   0.0891
  0.0976   0.1066   0.1181   0.1320   0.1453   0.1519   0.1542   0.1581
  0.1603   0.1627   0.1663   0.1720   0.1783   0.1830   0.1860   0.1911
  0.1949   0.1968   0.2000   0.2015   0.2077   0.2136   0.2296   0.2329
  0.2413   0.2563   0.2631   0.2682   0.2854   0.3003   0.3110   0.3139
  0.3259   0.3380   0.3485   0.3598   0.3985   0.4120   0.4138   0.4242
  0.4661   0.4787   0.4849   0.4959   0.4987   0.5046   0.5146   0.5202
  0.5257   0.5347   0.5374   0.5421   0.5492   0.5570   0.5620   0.5661
  0.5731   0.5793   0.5832   0.5855   0.5901   0.5932   0.5968   0.5990
  0.6056   0.6113   0.6155   0.6204   0.6227   0.6266   0.6374   0.6413
  0.6467   0.6638   0.6689   0.6811   0.6884   0.6915   0.7100   0.7112
  0.7235   0.7329   0.7403   0.7600   0.7773   0.7971   0.8038   0.8255
  0.8304   0.8324   0.8416   0.8428   0.8457   0.8462   0.8511   0.8525
  0.8642   0.8730   0.8801   0.8854   0.8990   0.9041   0.9088   0.9155
  0.9207   0.9261   0.9375   0.9463   0.9562   0.9604   0.9656   0.9661
  0.9778   0.9881   0.9934   0.9998   1.0060   1.0149   1.0233   1.0579
  1.0788   1.0930   1.0955   1.1080   1.1242   1.1340   1.1451   1.1483
  1.1554   1.1596   1.1653   1.1792   1.1913   1.2030   1.2156   1.2272
  1.2398   1.2565   1.2700   1.2796   1.2905   1.3058   1.3245   1.3425
  1.3572   1.3607   1.3943   1.4018   1.4108   1.4274   1.4312   1.4355
  1.4461   1.4531   1.4585   1.4661   1.4757   1.4873   1.4901   1.4968
  1.5014   1.5078   1.5149   1.5452   1.5516   1.5670   1.5931   1.6365
  1.6615   1.6735   1.7073   1.7251   1.7292   1.7392   1.7490   1.7780
  1.7815   1.7843   1.7983   1.8100   1.8183   1.8286   1.8324   1.8357
  1.8394   1.8498   1.8592   1.8638   1.8741   1.8821   1.8862   1.9066
  1.9131   1.9270   1.9311   1.9535   1.9676   1.9705   1.9787   1.9923
  1.9995   2.0020   2.0118   2.0249   2.0345   2.0462   2.0701   2.0813
  2.0938   2.1016   2.1095   2.1223   2.1440   2.1517   2.1601   2.1675
  2.1682   2.1805   2.1824   2.1928   2.2068   2.2182   2.2350   2.2448
  2.2454   2.2581   2.2712   2.2761   2.2797   2.3025   2.3059   2.3180
  2.3229   2.3310   2.3551   2.3576   2.3676   2.4253   2.4462   2.4918
  2.5067   2.5150   2.5226   2.5386   2.5681   2.5957   2.6071   2.6081
  2.6284   2.6359   2.6583   2.6656   2.6805   2.6859   2.7072   2.7223
  2.7367   2.7590   2.7642   2.7681   2.7829   2.8060   2.8238   2.8331
  2.8690   2.8886   2.9243   2.9420   2.9623   3.0072   3.0315   3.0618
  3.1318   3.1667   3.2681   3.3137   3.3366   3.4636   3.4883   4.0763
  4.0899   4.1075   4.1150   4.1284   4.1326   4.1731   4.1800   4.2242
  4.2562   4.2936   4.3104   4.3139   4.3328   4.3489   4.3968   4.4301
  4.5025   4.5437   4.7015   4.7241   4.7845   4.8232   5.2893
 --------------------------------------------------------------
 
          Ground-State Mulliken Net Atomic Charges

     Atom                 Charge (a.u.)
  ----------------------------------------
      1 C                    -0.449540
      2 C                     0.308597
      3 C                    -0.468488
      4 O                    -0.509534
      5 C                     0.792817
      6 N                    -0.647268
      7 C                     0.285192
      8 C                    -0.131819
      9 C                    -0.215675
     10 C                     0.205105
     11 C                    -0.300161
     12 C                     0.542339
     13 F                    -0.234705
     14 F                    -0.248511
     15 C                    -0.208775
     16 C                    -0.148062
     17 C                     0.293733
     18 C                    -0.133722
     19 C                    -0.145577
     20 C                    -0.122011
     21 C                    -0.140245
     22 C                    -0.154649
     23 O                    -0.510162
     24 C                    -0.470358
     25 H                     0.157095
     26 H                     0.151387
     27 H                     0.147221
     28 H                     0.146841
     29 H                     0.143079
     30 H                     0.188284
     31 H                     0.138745
     32 H                     0.129784
     33 H                     0.159077
     34 H                     0.142193
     35 H                     0.148863
     36 H                     0.148446
     37 H                     0.131257
     38 H                     0.126524
     39 H                     0.130385
     40 H                     0.144042
     41 H                     0.144637
     42 H                     0.142451
     43 H                     0.191167
  ----------------------------------------
  Sum of atomic charges =     0.000000

 -----------------------------------------------------------------
                    Cartesian Multipole Moments
 -----------------------------------------------------------------
    Charge (ESU x 10^10)
                 0.0000
    Dipole Moment (Debye)
         X       0.5999      Y      -1.1802      Z      -0.1829
       Tot       1.3365
    Quadrupole Moments (Debye-Ang)
        XX    -148.5202     XY       1.5605     YY    -123.5196
        XZ      -6.6922     YZ       2.5545     ZZ    -133.7674
    Octopole Moments (Debye-Ang^2)
       XXX      40.1129    XXY     -16.3544    XYY     -11.2605
       YYY      -3.1653    XXZ      10.9735    XYZ      -1.9666
       YYZ      -2.5573    XZZ      23.0515    YZZ      -8.0873
       ZZZ       9.3068
    Hexadecapole Moments (Debye-Ang^3)
      XXXX   -7759.2135   XXXY      33.5415   XXYY   -1838.7024
      XYYY      14.3231   YYYY   -4238.9400   XXXZ     -68.3563
      XXYZ      56.7913   XYYZ     -27.3775   YYYZ     -25.9189
      XXZZ   -1293.2569   XYZZ      -1.1174   YYZZ    -857.4708
      XZZZ      42.7134   YZZZ      15.9240   ZZZZ    -644.7199
 -----------------------------------------------------------------
Archival summary:
1\1\nia0001.scinet.local\SP\ProcedureUnspecified\6-31G*\2211919\rhickman\FriFeb412:12:582022FriFeb412:12:582022\0\\#,ProcedureUnspecified,6-31G*,\\0,1\O\C,1,1.33779\O,2,1.2054,1,126.272\N,2,1.37863,1,110.267,3,179.243,0\C,4,1.4107,2,121.94,1,10.8015,0\C,5,1.3919,4,121.378,2,49.0916,0\H,6,1.07865,5,119.751,4,-0.109173,0\C,6,1.37815,5,120.074,4,179.656,0\H,8,1.0802,6,119.381,5,-179.958,0\C,5,1.3927,4,119.475,2,-132.31,0\H,10,1.07983,5,119.285,4,0.639817,0\C,10,1.37896,5,120.659,4,-179.375,0\H,12,1.07737,10,118.903,5,-179.658,0\C,12,1.39684,10,120.644,5,-0.0219876,0\C,4,1.41592,2,120.309,1,-168.806,0\C,15,1.38951,4,121.286,2,40.0307,0\H,16,1.07777,15,119.935,4,-0.67897,0\C,16,1.38325,15,119.805,4,179.879,0\H,18,1.07973,16,119.431,15,179.798,0\C,18,1.38429,16,120.524,15,-0.68356,0\H,20,1.07953,18,120.204,16,-179.749,0\C,20,1.3849,18,119.66,16,0.278301,0\H,22,1.07989,20,120.173,18,179.844,0\C,22,1.38189,20,120.261,18,0.281624,0\H,24,1.08023,22,120.343,20,179.558,0\C,1,1.44821,2,120.626,3,1.77641,0\C,14,1.45269,12,123.649,10,-179.77,0\H,27,1.08062,14,116.471,12,-179.866,0\C,27,1.32529,14,128.568,12,0.195192,0\F,29,1.32779,27,128.131,14,-0.0389417,0\F,29,1.33232,27,123.036,14,179.985,0\C,26,1.5281,1,110.319,2,-62.0822,0\H,32,1.08631,26,109.651,1,-174.202,0\H,32,1.08646,26,110.257,1,65.8192,0\H,32,1.08807,26,110.025,1,-54.4012,0\C,26,1.52825,1,110.371,2,61.0353,0\H,36,1.08628,26,109.608,1,175.536,0\H,36,1.08656,26,110.284,1,-64.5211,0\H,36,1.08821,26,110.213,1,55.7877,0\C,26,1.52923,1,103.694,2,179.507,0\H,40,1.08575,26,110.02,1,179.78,0\H,40,1.08669,26,109.987,1,59.4583,0\H,40,1.08681,26,110.1,1,-59.8702,0\\\@

 Total job time:  133.60s(wall), 133.23s(cpu) 
 Fri Feb  4 12:12:58 2022

        *************************************************************
        *                                                           *
        *  Thank you very much for using Q-Chem.  Have a nice day.  *
        *                                                           *
        *************************************************************


