
Running Job 1 of 1 fragments/C072/conf-5/spe_input.inp
qchem fragments/C072/conf-5/spe_input.inp_93194.0 /gpfs/fs0/scratch/a/aspuru/rhickman/descriptor_computation/qchem93194/ 0
/scinet/niagara/software/commercial/qc52/exe/qcprog.exe_s fragments/C072/conf-5/spe_input.inp_93194.0 /gpfs/fs0/scratch/a/aspuru/rhickman/descriptor_computation/qchem93194/
                  Welcome to Q-Chem
     A Quantum Leap Into The Future Of Chemistry


 Q-Chem 5.2, Q-Chem, Inc., Pleasanton, CA (2019)

 License issued to: SRG Alan Aspuru-Guzik, University of Toronto

 Yihan Shao,  Zhengting Gan,  E. Epifanovsky,  A. T. B. Gilbert,  M. Wormit,  
 J. Kussmann,  A. W. Lange,  A. Behn,  Jia Deng,  Xintian Feng,  D. Ghosh,  
 M. Goldey,  P. R. Horn,  L. D. Jacobson,  I. Kaliman,  T. Kus,  A. Landau,  
 Jie Liu,  E. I. Proynov,  R. M. Richard,  R. P. Steele,  E. J. Sundstrom,  
 H. L. Woodcock III,  P. M. Zimmerman,  D. Zuev,  B. Albrecht,  E. Alguire,  
 S. A. Baeppler,  D. Barton,  Z. Benda,  Y. A. Bernard,  E. J. Berquist,  
 K. B. Bravaya,  H. Burton,  D. Casanova,  Chun-Min Chang,  Yunqing Chen,  
 A. Chien,  K. D. Closser,  M. P. Coons,  S. Coriani,  S. Dasgupta,  
 A. L. Dempwolff,  M. Diedenhofen,  Hainam Do,  R. G. Edgar,  Po-Tung Fang,  
 S. Faraji,  S. Fatehi,  Qingguo Feng,  K. D. Fenk,  J. Fosso-Tande,  
 J. Gayvert,  Qinghui Ge,  A. Ghysels,  G. Gidofalvi,  J. Gomes,  
 J. Gonthier,  A. Gunina,  D. Hait,  M. W. D. Hanson-Heine,  
 P. H. P. Harbach,  A. W. Hauser,  M. F. Herbst,  J. E. Herr,  
 E. G. Hohenstein,  Z. C. Holden,  Kerwin Hui,  B. C. Huynh,  T.-C. Jagau,  
 Hyunjun Ji,  B. Kaduk,  K. Khistyaev,  Jaehoon Kim,  P. Klunzinger,  K. Koh,  
 D. Kosenkov,  L. Koulias,  T. Kowalczyk,  C. M. Krauter,  A. Kunitsa,  
 Ka Un Lao,  A. Laurent,  K. V. Lawler,  Joonho Lee,  D. Lefrancois,  
 S. Lehtola,  D. S. Levine,  Yi-Pei Li,  You-Sheng Lin,  Fenglai Liu,  
 E. Livshits,  A. Luenser,  P. Manohar,  E. Mansoor,  S. F. Manzer,  
 Shan-Ping Mao,  Yuezhi Mao,  N. Mardirossian,  A. V. Marenich,  
 T. Markovich,  L. A. Martinez-Martinez,  S. A. Maurer,  N. J. Mayhall,  
 S. C. McKenzie,  J.-M. Mewes,  P. Morgante,  A. F. Morrison,  
 J. W. Mullinax,  K. Nanda,  T. S. Nguyen-Beck,  R. Olivares-Amaya,  
 J. A. Parkhill,  Zheng Pei,  T. M. Perrine,  F. Plasser,  P. Pokhilko,  
 S. Prager,  A. Prociuk,  E. Ramos,  D. R. Rehn,  F. Rob,  M. Scheurer,  
 M. Schneider,  N. Sergueev,  S. M. Sharada,  S. Sharma,  D. W. Small,  
 T. Stauch,  T. Stein,  Yu-Chuan Su,  A. J. W. Thom,  A. Tkatchenko,  
 T. Tsuchimochi,  N. M. Tubman,  L. Vogt,  M. L. Vidal,  O. Vydrov,  
 M. A. Watson,  J. Wenzel,  M. de Wergifosse,  T. A. Wesolowski,  A. White,  
 J. Witte,  A. Yamada,  Jun Yang,  K. Yao,  S. Yeganeh,  S. R. Yost,  
 Zhi-Qiang You,  A. Zech,  Igor Ying Zhang,  Xing Zhang,  Yan Zhao,  
 Ying Zhu,  B. R. Brooks,  G. K. L. Chan,  C. J. Cramer,  M. S. Gordon,  
 W. J. Hehre,  A. Klamt,  M. W. Schmidt,  C. D. Sherrill,  D. G. Truhlar,  
 A. Aspuru-Guzik,  R. Baer,  A. T. Bell,  N. A. Besley,  Jeng-Da Chai,  
 A. E. DePrince, III,  R. A. DiStasio Jr.,  A. Dreuw,  B. D. Dunietz,  
 T. R. Furlani,  Chao-Ping Hsu,  Yousung Jung,  Jing Kong,  D. S. Lambrecht,  
 WanZhen Liang,  C. Ochsenfeld,  V. A. Rassolov,  L. V. Slipchenko,  
 J. E. Subotnik,  T. Van Voorhis,  J. M. Herbert,  A. I. Krylov,  
 P. M. W. Gill,  M. Head-Gordon

 Contributors to earlier versions of Q-Chem not listed above: 
 R. D. Adamson,  B. Austin,  J. Baker,  G. J. O. Beran,  K. Brandhorst,  
 S. T. Brown,  E. F. C. Byrd,  A. K. Chakraborty,  C.-L. Cheng,  
 Siu Hung Chien,  D. M. Chipman,  D. L. Crittenden,  H. Dachsel,  
 R. J. Doerksen,  A. D. Dutoi,  L. Fusti-Molnar,  W. A. Goddard III,  
 A. Golubeva-Zadorozhnaya,  S. R. Gwaltney,  G. Hawkins,  A. Heyden,  
 S. Hirata,  G. Kedziora,  F. J. Keil,  C. Kelley,  Jihan Kim,  R. A. King,  
 R. Z. Khaliullin,  P. P. Korambath,  W. Kurlancheek,  A. M. Lee,  M. S. Lee,  
 S. V. Levchenko,  Ching Yeh Lin,  D. Liotard,  R. C. Lochan,  I. Lotan,  
 P. E. Maslen,  N. Nair,  D. P. O'Neill,  D. Neuhauser,  E. Neuscamman,  
 C. M. Oana,  R. Olson,  B. Peters,  R. Peverati,  P. A. Pieniazek,  
 Y. M. Rhee,  J. Ritchie,  M. A. Rohrdanz,  E. Rosta,  N. J. Russ,  
 H. F. Schaefer III,  N. E. Schultz,  N. Shenvi,  A. C. Simmonett,  A. Sodt,  
 D. Stuck,  K. S. Thanthiriwatte,  V. Vanovschi,  Tao Wang,  A. Warshel,  
 C. F. Williams,  Q. Wu,  X. Xu,  W. Zhang

 Please cite Q-Chem as follows:
 Y. Shao et al., Mol. Phys. 113, 184-215 (2015)
 DOI: 10.1080/00268976.2014.952696

 Q-Chem 5.2.1 for Intel X86 EM64T Linux

 Parts of Q-Chem use Armadillo 8.300.2 (Tropical Shenanigans).
 http://arma.sourceforge.net/

 Q-Chem begins on Mon Feb  7 15:18:57 2022  

Host: 
0

     Scratch files written to /gpfs/fs0/scratch/a/aspuru/rhickman/descriptor_computation/qchem93194//
 Jul1719 |scratch|qcdevops|jenkins|workspace|build_RNUM -1
Processing $rem in /scinet/niagara/software/commercial/qc52/config/preferences:
	 MEM_TOTAL  4000 
NAlpha2: 102
NElect   102
Mult     1

Checking the input file for inconsistencies... 	...done.

--------------------------------------------------------------
User input:
--------------------------------------------------------------
$molecule
0 1
C         4.28430243170000    0.60677355770000    0.39596272680000
C         3.29482737180000   -0.27496023770000    0.48601755070000
C         1.88157970200000   -0.06192341010000    0.20281687770000
C         0.99437842990000   -1.11930186490000    0.40900236980000
C        -0.37248581020000   -1.04670894250000    0.16279119070000
C        -1.15786079620000   -2.27215684990000    0.33863818530000
C        -2.12153413930000   -2.68619307520000   -0.47140823250000
C        -0.89499970030000    0.18093097290000   -0.25824914590000
S        -2.63529351030000    0.48553623230000   -0.50012798470000
C        -3.24793816280000    0.13998378890000    1.17764882700000
C        -0.04322074600000    1.25150495380000   -0.48090824850000
C         1.31411744110000    1.12477614720000   -0.26910750560000
F         2.07445526120000    2.21127479150000   -0.51693703340000
H         5.29460128430000    0.32146710280000    0.63670541210000
H         4.14309936810000    1.62635139150000    0.08759036610000
H         3.52253191900000   -1.28423743090000    0.80843875560000
H         1.39702432590000   -2.06095573350000    0.75612036890000
H        -0.84406229930000   -2.89598996970000    1.16772523120000
H        -2.43543368490000   -2.11268959830000   -1.32658130550000
H        -2.62947762280000   -3.62134271670000   -0.30649552100000
H        -4.30975209960000    0.36188416730000    1.16334893160000
H        -2.73813031020000    0.79009425590000    1.88220589030000
H        -3.08372924640000   -0.90452795660000    1.42355099600000
H        -0.44094584650000    2.19591527020000   -0.81786031660000
$end

$rem
BASIS = 6-31G*
GUI = 2
METHOD = B3LYP
PRINT_ORBITALS false
MOLDEN_FORMAT false
--------------------------------------------------------------
 ----------------------------------------------------------------
             Standard Nuclear Orientation (Angstroms)
    I     Atom           X                Y                Z
 ----------------------------------------------------------------
    1      C       4.3420562892     0.4169774374    -0.2485030840
    2      C       3.1750770502     1.0516281509    -0.2467201079
    3      C       1.8474499554     0.4771463105    -0.0728431411
    4      C       0.7402532124     1.3230038189    -0.1523931170
    5      C      -0.5746551094     0.8999965562     0.0097441366
    6      C      -1.6224951690     1.9252654573    -0.0079617275
    7      C      -2.6659110459     1.9671032265     0.8080042131
    8      C      -0.8008258324    -0.4671090944     0.2027841235
    9      S      -2.4245223037    -1.1972552251     0.3048070545
   10      C      -3.0807393369    -0.7259906498    -1.3252125455
   11      C       0.2748178108    -1.3364642528     0.2946833779
   12      C       1.5673993625    -0.8694477262     0.1746200805
   13      F       2.5575596969    -1.7791684629     0.2841786172
   14      H       5.2605227449     0.9616255002    -0.3893520914
   15      H       4.4393400257    -0.6446478411    -0.1141214636
   16      H       3.1644692212     2.1254814166    -0.3922257243
   17      H       0.9158298565     2.3760873712    -0.3241909784
   18      H      -1.4532298965     2.7335891111    -0.7100904379
   19      H      -2.8473501712     1.2026799026     1.5438689922
   20      H      -3.3763117231     2.7754985399     0.7688183487
   21      H      -4.0613858569    -1.1838283320    -1.4001135531
   22      H      -2.4246853703    -1.1155577352    -2.0977272704
   23      H      -3.1622341062     0.3543883096    -1.3928670947
   24      H       0.1047917417    -2.3893718815     0.4562675938
 ----------------------------------------------------------------
 Molecular Point Group                 C1    NOp =  1
 Largest Abelian Subgroup              C1    NOp =  1
 Nuclear Repulsion Energy =         846.27938606 hartrees
 There are       51 alpha and       51 beta electrons
 Requested basis set is 6-31G(d)
 There are 75 shells and 221 basis functions

 Total QAlloc Memory Limit   4000 MB
 Mega-Array Size       188 MB
 MEM_STATIC part       192 MB
 A cutoff of  1.0D-08 yielded   1900 shell pairs
 There are     18204 function pairs
 Smallest overlap matrix eigenvalue = 3.52E-04

 Scale SEOQF with 1.000000e-02/1.000000e-01/1.000000e-01

 Standard Electronic Orientation quadrupole field applied
 Nucleus-field energy     =     0.0000000115 hartrees
 Guess from superposition of atomic densities
 Warning:  Energy on first SCF cycle will be non-variational
 SAD guess density has 102.000000 electrons

 -----------------------------------------------------------------------
  General SCF calculation program by
  Eric Jon Sundstrom, Paul Horn, Yuezhi Mao, Dmitri Zuev, Alec White,
  David Stuck, Shaama M.S., Shane Yost, Joonho Lee, David Small,
  Daniel Levine, Susi Lehtola, Hugh Burton, Evgeny Epifanovsky,
  Bang C. Huynh
 -----------------------------------------------------------------------
 Exchange:     0.2000 Hartree-Fock + 0.0800 Slater + 0.7200 B88
 Correlation:  0.1900 VWN1RPA + 0.8100 LYP
 Using SG-1 standard quadrature grid
 A restricted SCF calculation will be
 performed using DIIS
 SCF converges when DIIS error is below 1.0e-05
 ---------------------------------------
  Cycle       Energy         DIIS error
 ---------------------------------------
    1    -926.5758986048      5.27e-02  
    2    -923.5857707311      5.32e-03  
    3    -923.5557517386      5.75e-03  
    4    -923.7614390224      1.13e-03  
    5    -923.7692268250      4.05e-04  
    6    -923.7701750968      1.65e-04  
    7    -923.7703416822      4.58e-05  
    8    -923.7703541956      1.71e-05  
    9    -923.7703560076      3.26e-06  Convergence criterion met
 ---------------------------------------
 SCF time:   CPU 35.79s  wall 36.00s 
 SCF   energy in the final basis set =     -923.7703560076
 Total energy in the final basis set =     -923.7703560076
 
 --------------------------------------------------------------
 
                    Orbital Energies (a.u.)
 --------------------------------------------------------------
 
 Alpha MOs
 -- Occupied --
-88.8739 -24.7127 -10.2761 -10.2245 -10.2088 -10.2061 -10.2055 -10.2003
-10.1980 -10.1966 -10.1952 -10.1823 -10.1815  -7.9351  -5.9004  -5.8966
 -5.8895  -1.2242  -0.8846  -0.8209  -0.7951  -0.7773  -0.7412  -0.7259
 -0.6619  -0.6299  -0.6070  -0.5948  -0.5601  -0.5225  -0.4982  -0.4942
 -0.4672  -0.4593  -0.4464  -0.4420  -0.4332  -0.4295  -0.4152  -0.4040
 -0.3932  -0.3851  -0.3674  -0.3561  -0.3450  -0.3248  -0.3102  -0.2855
 -0.2438  -0.2384  -0.2101
 -- Virtual --
 -0.0455  -0.0211   0.0224   0.0427   0.0648   0.0889   0.1056   0.1167
  0.1276   0.1337   0.1503   0.1529   0.1566   0.1690   0.1807   0.1838
  0.1870   0.2008   0.2233   0.2701   0.2875   0.3004   0.3247   0.3435
  0.3496   0.3646   0.3701   0.3847   0.4098   0.4166   0.4476   0.4774
  0.4846   0.4996   0.5072   0.5119   0.5263   0.5449   0.5504   0.5621
  0.5698   0.5751   0.5838   0.6024   0.6144   0.6240   0.6286   0.6550
  0.6626   0.6761   0.6847   0.6906   0.7147   0.7309   0.7631   0.7753
  0.8055   0.8126   0.8282   0.8439   0.8523   0.8604   0.8630   0.8735
  0.8849   0.8863   0.9024   0.9153   0.9184   0.9278   0.9523   0.9587
  0.9764   0.9847   0.9868   1.0232   1.0378   1.0423   1.0686   1.0871
  1.0961   1.1482   1.1619   1.1878   1.1996   1.2201   1.2379   1.2637
  1.2782   1.3177   1.3316   1.3492   1.3769   1.4133   1.4259   1.4378
  1.4559   1.4874   1.4927   1.5475   1.5570   1.5638   1.5889   1.6687
  1.6845   1.7124   1.7226   1.7563   1.7763   1.7912   1.7932   1.8201
  1.8225   1.8844   1.8932   1.9360   1.9535   1.9666   1.9967   2.0204
  2.0310   2.0606   2.0760   2.1179   2.1499   2.1602   2.1668   2.1698
  2.1951   2.2112   2.2471   2.2610   2.2688   2.2821   2.3084   2.3246
  2.3610   2.3804   2.4118   2.4269   2.4659   2.5613   2.5960   2.6406
  2.6504   2.6574   2.6826   2.7015   2.7575   2.8274   2.9077   2.9187
  2.9463   3.0480   3.1337   3.2848   3.4271   3.9458   4.0702   4.1168
  4.1268   4.1569   4.1656   4.2233   4.2490   4.2824   4.3924   4.5000
  4.7332   5.4935
 --------------------------------------------------------------
 
          Ground-State Mulliken Net Atomic Charges

     Atom                 Charge (a.u.)
  ----------------------------------------
      1 C                    -0.357100
      2 C                    -0.109501
      3 C                     0.126713
      4 C                    -0.269499
      5 C                     0.163520
      6 C                    -0.162398
      7 C                    -0.318759
      8 C                    -0.143218
      9 S                     0.087899
     10 C                    -0.584617
     11 C                    -0.222090
     12 C                     0.327024
     13 F                    -0.288241
     14 H                     0.141994
     15 H                     0.163393
     16 H                     0.130831
     17 H                     0.136539
     18 H                     0.135030
     19 H                     0.176846
     20 H                     0.142923
     21 H                     0.182130
     22 H                     0.185183
     23 H                     0.192252
     24 H                     0.163147
  ----------------------------------------
  Sum of atomic charges =     0.000000

 -----------------------------------------------------------------
                    Cartesian Multipole Moments
 -----------------------------------------------------------------
    Charge (ESU x 10^10)
                 0.0000
    Dipole Moment (Debye)
         X      -0.4618      Y       1.6686      Z      -1.2958
       Tot       2.1625
    Quadrupole Moments (Debye-Ang)
        XX     -78.3660     XY       0.0615     YY     -79.8032
        XZ       2.3432     YZ      -0.4157     ZZ     -83.6515
    Octopole Moments (Debye-Ang^2)
       XXX      12.5647    XXY       8.1430    XYY       5.7971
       YYY      -2.2340    XXZ     -11.5816    XYZ      -5.8102
       YYZ      -4.8296    XZZ      -3.5299    YZZ      -8.6952
       ZZZ       1.4454
    Hexadecapole Moments (Debye-Ang^3)
      XXXX   -2727.5150   XXXY     -11.5113   XXYY    -614.9874
      XYYY     -42.4572   YYYY    -879.1596   XXXZ      20.6452
      XXYZ      13.8044   XYYZ       3.1782   YYYZ     -18.3649
      XXZZ    -540.0726   XYZZ     -12.3928   YYZZ    -191.9815
      XZZZ      12.9939   YZZZ      -2.2098   ZZZZ    -234.4540
 -----------------------------------------------------------------
Archival summary:
1\1\nia1977.scinet.local\SP\ProcedureUnspecified\6-31G*\111111\rhickman\MonFeb715:19:332022MonFeb715:19:332022\0\\#,ProcedureUnspecified,6-31G*,\\0,1\S\C,1,1.78323\C,2,1.38609,1,116.487\H,3,1.07872,2,119.987,1,-2.18105,0\C,3,1.3796,2,120.597,1,177.493,0\F,5,1.34908,3,116.893,2,179.611,0\C,5,1.39749,3,121.962,2,-1.50667,0\C,7,1.3956,5,115.793,3,1.75683,0\H,8,1.08135,7,118.066,5,178.868,0\C,8,1.39076,7,123.993,5,0.578435,0\C,7,1.457,5,125.709,3,-178.394,0\H,11,1.08372,7,113.441,5,-177.81,0\C,11,1.32839,7,127.754,5,2.41487,0\H,13,1.07451,11,123.463,7,-0.0522331,0\H,13,1.07706,11,120.512,7,179.936,0\C,10,1.4661,8,117.492,7,175.756,0\H,16,1.08398,10,114.689,8,37.1078,0\C,16,1.32524,10,125.265,8,-138.214,0\H,18,1.07646,16,122.086,10,-2.562,0\H,18,1.0769,16,121.378,10,177.207,0\C,1,1.81925,2,99.8524,3,-118.849,0\H,21,1.08485,1,106.177,2,176.288,0\H,21,1.08556,1,109.921,2,-64.3472,0\H,21,1.08579,1,109.062,2,57.5369,0\\\@

 Total job time:  36.10s(wall), 35.98s(cpu) 
 Mon Feb  7 15:19:33 2022

        *************************************************************
        *                                                           *
        *  Thank you very much for using Q-Chem.  Have a nice day.  *
        *                                                           *
        *************************************************************


