24
 energy: -37.069354870725 gnorm: 0.000041409860 xtb: 6.4.1 (23d549d)
C         4.28430243170000    0.60677355770000    0.39596272680000
C         3.29482737180000   -0.27496023770000    0.48601755070000
C         1.88157970200000   -0.06192341010000    0.20281687770000
C         0.99437842990000   -1.11930186490000    0.40900236980000
C        -0.37248581020000   -1.04670894250000    0.16279119070000
C        -1.15786079620000   -2.27215684990000    0.33863818530000
C        -2.12153413930000   -2.68619307520000   -0.47140823250000
C        -0.89499970030000    0.18093097290000   -0.25824914590000
S        -2.63529351030000    0.48553623230000   -0.50012798470000
C        -3.24793816280000    0.13998378890000    1.17764882700000
C        -0.04322074600000    1.25150495380000   -0.48090824850000
C         1.31411744110000    1.12477614720000   -0.26910750560000
F         2.07445526120000    2.21127479150000   -0.51693703340000
H         5.29460128430000    0.32146710280000    0.63670541210000
H         4.14309936810000    1.62635139150000    0.08759036610000
H         3.52253191900000   -1.28423743090000    0.80843875560000
H         1.39702432590000   -2.06095573350000    0.75612036890000
H        -0.84406229930000   -2.89598996970000    1.16772523120000
H        -2.43543368490000   -2.11268959830000   -1.32658130550000
H        -2.62947762280000   -3.62134271670000   -0.30649552100000
H        -4.30975209960000    0.36188416730000    1.16334893160000
H        -2.73813031020000    0.79009425590000    1.88220589030000
H        -3.08372924640000   -0.90452795660000    1.42355099600000
H        -0.44094584650000    2.19591527020000   -0.81786031660000
