46
 energy: -76.742215981817 gnorm: 0.000040513521 xtb: 6.4.1 (23d549d)
F         2.17225346010000    5.57588635300000   -0.14239889340000
C         2.06545885610000    4.24740200520000   -0.08249176170000
F         0.78162681450000    3.92949256400000    0.05713015530000
C         3.10898351020000    3.43391808840000   -0.15019535820000
C         3.13270785590000    1.98188542530000   -0.09296881280000
C         4.39089076130000    1.35376763410000   -0.07485134020000
C         4.51689930780000   -0.01639043820000   -0.03274234260000
C         1.97156101050000    1.21305317160000   -0.06106356150000
C         2.09763817230000   -0.16405969960000    0.00436193850000
C         3.36566228450000   -0.79358942290000    0.00466749480000
C         3.12024645240000   -2.20551054320000    0.03230772870000
C         3.94958858130000   -3.32011301720000    0.06156461020000
C         3.37165110780000   -4.57211498700000    0.10792208910000
C         1.98612171810000   -4.72143753920000    0.13994262690000
C         1.14079475470000   -3.62935905880000    0.11164035290000
C         1.71475409930000   -2.36769320640000    0.04153475230000
N         1.11112351570000   -1.12700669720000    0.02477036990000
C        -0.27081761380000   -0.88368300250000    0.02277041500000
C        -1.09449699770000   -1.52506180760000   -0.89749789370000
C        -2.45387041700000   -1.28564919850000   -0.89436747430000
C        -3.02139745460000   -0.39133731120000    0.01110564670000
C        -4.46759090480000   -0.12949799400000    0.00373105200000
C        -5.37755061290000   -1.17055367730000   -0.16546744800000
C        -6.73749763910000   -0.92261546340000   -0.16832849980000
C        -7.21034783800000    0.36911336050000   -0.00834969530000
C        -6.31435576140000    1.41203528730000    0.15715441810000
C        -4.95419092130000    1.16570565610000    0.16620677170000
C        -2.18646666070000    0.25041905580000    0.92373739700000
C        -0.82876208360000    0.00344917360000    0.93854705040000
H         4.06457910980000    3.92806378090000   -0.25168417280000
H         5.27769860340000    1.96938593590000   -0.10032209480000
H         5.49097733650000   -0.48119600570000   -0.03271898260000
H         0.99681552430000    1.66905376970000   -0.10215382900000
H         5.02265639170000   -3.20277327820000    0.05249769300000
H         3.99720942290000   -5.45193396830000    0.12904772350000
H         1.56392949150000   -5.71415362100000    0.19178293060000
H         0.06949530510000   -3.75466547420000    0.15453514130000
H        -0.66031194260000   -2.19661759950000   -1.62328788440000
H        -3.08182386400000   -1.77536676780000   -1.62398991320000
H        -5.01512968510000   -2.18267028970000   -0.27356437780000
H        -7.43208990060000   -1.74055028290000   -0.29393422630000
H        -8.27288926340000    0.56216409730000   -0.01274446440000
H        -6.67758407550000    2.42225255290000    0.27789724170000
H        -4.25937781940000    1.98528112570000    0.27794715580000
H        -2.61072815350000    0.93023084260000    1.64743552180000
H        -0.19552918430000    0.48563437540000    1.66807547540000
