
Running Job 1 of 1 fragments/C095/conf-4/spe_input.inp
qchem fragments/C095/conf-4/spe_input.inp_330348.0 /gpfs/fs0/scratch/a/aspuru/rhickman/descriptor_computation/qchem330348/ 0
/scinet/niagara/software/commercial/qc52/exe/qcprog.exe_s fragments/C095/conf-4/spe_input.inp_330348.0 /gpfs/fs0/scratch/a/aspuru/rhickman/descriptor_computation/qchem330348/
                  Welcome to Q-Chem
     A Quantum Leap Into The Future Of Chemistry


 Q-Chem 5.2, Q-Chem, Inc., Pleasanton, CA (2019)

 License issued to: SRG Alan Aspuru-Guzik, University of Toronto

 Yihan Shao,  Zhengting Gan,  E. Epifanovsky,  A. T. B. Gilbert,  M. Wormit,  
 J. Kussmann,  A. W. Lange,  A. Behn,  Jia Deng,  Xintian Feng,  D. Ghosh,  
 M. Goldey,  P. R. Horn,  L. D. Jacobson,  I. Kaliman,  T. Kus,  A. Landau,  
 Jie Liu,  E. I. Proynov,  R. M. Richard,  R. P. Steele,  E. J. Sundstrom,  
 H. L. Woodcock III,  P. M. Zimmerman,  D. Zuev,  B. Albrecht,  E. Alguire,  
 S. A. Baeppler,  D. Barton,  Z. Benda,  Y. A. Bernard,  E. J. Berquist,  
 K. B. Bravaya,  H. Burton,  D. Casanova,  Chun-Min Chang,  Yunqing Chen,  
 A. Chien,  K. D. Closser,  M. P. Coons,  S. Coriani,  S. Dasgupta,  
 A. L. Dempwolff,  M. Diedenhofen,  Hainam Do,  R. G. Edgar,  Po-Tung Fang,  
 S. Faraji,  S. Fatehi,  Qingguo Feng,  K. D. Fenk,  J. Fosso-Tande,  
 J. Gayvert,  Qinghui Ge,  A. Ghysels,  G. Gidofalvi,  J. Gomes,  
 J. Gonthier,  A. Gunina,  D. Hait,  M. W. D. Hanson-Heine,  
 P. H. P. Harbach,  A. W. Hauser,  M. F. Herbst,  J. E. Herr,  
 E. G. Hohenstein,  Z. C. Holden,  Kerwin Hui,  B. C. Huynh,  T.-C. Jagau,  
 Hyunjun Ji,  B. Kaduk,  K. Khistyaev,  Jaehoon Kim,  P. Klunzinger,  K. Koh,  
 D. Kosenkov,  L. Koulias,  T. Kowalczyk,  C. M. Krauter,  A. Kunitsa,  
 Ka Un Lao,  A. Laurent,  K. V. Lawler,  Joonho Lee,  D. Lefrancois,  
 S. Lehtola,  D. S. Levine,  Yi-Pei Li,  You-Sheng Lin,  Fenglai Liu,  
 E. Livshits,  A. Luenser,  P. Manohar,  E. Mansoor,  S. F. Manzer,  
 Shan-Ping Mao,  Yuezhi Mao,  N. Mardirossian,  A. V. Marenich,  
 T. Markovich,  L. A. Martinez-Martinez,  S. A. Maurer,  N. J. Mayhall,  
 S. C. McKenzie,  J.-M. Mewes,  P. Morgante,  A. F. Morrison,  
 J. W. Mullinax,  K. Nanda,  T. S. Nguyen-Beck,  R. Olivares-Amaya,  
 J. A. Parkhill,  Zheng Pei,  T. M. Perrine,  F. Plasser,  P. Pokhilko,  
 S. Prager,  A. Prociuk,  E. Ramos,  D. R. Rehn,  F. Rob,  M. Scheurer,  
 M. Schneider,  N. Sergueev,  S. M. Sharada,  S. Sharma,  D. W. Small,  
 T. Stauch,  T. Stein,  Yu-Chuan Su,  A. J. W. Thom,  A. Tkatchenko,  
 T. Tsuchimochi,  N. M. Tubman,  L. Vogt,  M. L. Vidal,  O. Vydrov,  
 M. A. Watson,  J. Wenzel,  M. de Wergifosse,  T. A. Wesolowski,  A. White,  
 J. Witte,  A. Yamada,  Jun Yang,  K. Yao,  S. Yeganeh,  S. R. Yost,  
 Zhi-Qiang You,  A. Zech,  Igor Ying Zhang,  Xing Zhang,  Yan Zhao,  
 Ying Zhu,  B. R. Brooks,  G. K. L. Chan,  C. J. Cramer,  M. S. Gordon,  
 W. J. Hehre,  A. Klamt,  M. W. Schmidt,  C. D. Sherrill,  D. G. Truhlar,  
 A. Aspuru-Guzik,  R. Baer,  A. T. Bell,  N. A. Besley,  Jeng-Da Chai,  
 A. E. DePrince, III,  R. A. DiStasio Jr.,  A. Dreuw,  B. D. Dunietz,  
 T. R. Furlani,  Chao-Ping Hsu,  Yousung Jung,  Jing Kong,  D. S. Lambrecht,  
 WanZhen Liang,  C. Ochsenfeld,  V. A. Rassolov,  L. V. Slipchenko,  
 J. E. Subotnik,  T. Van Voorhis,  J. M. Herbert,  A. I. Krylov,  
 P. M. W. Gill,  M. Head-Gordon

 Contributors to earlier versions of Q-Chem not listed above: 
 R. D. Adamson,  B. Austin,  J. Baker,  G. J. O. Beran,  K. Brandhorst,  
 S. T. Brown,  E. F. C. Byrd,  A. K. Chakraborty,  C.-L. Cheng,  
 Siu Hung Chien,  D. M. Chipman,  D. L. Crittenden,  H. Dachsel,  
 R. J. Doerksen,  A. D. Dutoi,  L. Fusti-Molnar,  W. A. Goddard III,  
 A. Golubeva-Zadorozhnaya,  S. R. Gwaltney,  G. Hawkins,  A. Heyden,  
 S. Hirata,  G. Kedziora,  F. J. Keil,  C. Kelley,  Jihan Kim,  R. A. King,  
 R. Z. Khaliullin,  P. P. Korambath,  W. Kurlancheek,  A. M. Lee,  M. S. Lee,  
 S. V. Levchenko,  Ching Yeh Lin,  D. Liotard,  R. C. Lochan,  I. Lotan,  
 P. E. Maslen,  N. Nair,  D. P. O'Neill,  D. Neuhauser,  E. Neuscamman,  
 C. M. Oana,  R. Olson,  B. Peters,  R. Peverati,  P. A. Pieniazek,  
 Y. M. Rhee,  J. Ritchie,  M. A. Rohrdanz,  E. Rosta,  N. J. Russ,  
 H. F. Schaefer III,  N. E. Schultz,  N. Shenvi,  A. C. Simmonett,  A. Sodt,  
 D. Stuck,  K. S. Thanthiriwatte,  V. Vanovschi,  Tao Wang,  A. Warshel,  
 C. F. Williams,  Q. Wu,  X. Xu,  W. Zhang

 Please cite Q-Chem as follows:
 Y. Shao et al., Mol. Phys. 113, 184-215 (2015)
 DOI: 10.1080/00268976.2014.952696

 Q-Chem 5.2.1 for Intel X86 EM64T Linux

 Parts of Q-Chem use Armadillo 8.300.2 (Tropical Shenanigans).
 http://arma.sourceforge.net/

 Q-Chem begins on Tue Feb  8 14:57:33 2022  

Host: 
0

     Scratch files written to /gpfs/fs0/scratch/a/aspuru/rhickman/descriptor_computation/qchem330348//
 Jul1719 |scratch|qcdevops|jenkins|workspace|build_RNUM -1
Processing $rem in /scinet/niagara/software/commercial/qc52/config/preferences:
	 MEM_TOTAL  4000 
NAlpha2: 152
NElect   152
Mult     1

Checking the input file for inconsistencies... 	...done.

--------------------------------------------------------------
User input:
--------------------------------------------------------------
$molecule
0 1
C         3.80089474260000   -2.54050405920000    0.37141965350000
C         3.70618296310000   -1.29638184980000   -0.08190579900000
C         2.50547479980000   -0.48843521790000   -0.03431815650000
C         1.21258647290000   -0.94458331330000   -0.02920072560000
N         0.33657378260000    0.10198816060000   -0.07117681910000
Si       -1.43473086700000    0.12222034410000   -0.03811918800000
C        -1.88807465330000    1.06073772950000    1.58614489130000
C        -3.34987676660000    0.88047531100000    1.99351459760000
C        -0.96960183480000    0.69430243200000    2.75266452900000
C        -1.95950200520000    1.20755938220000   -1.54505151880000
C        -1.07491814650000    0.99152246190000   -2.77345354990000
C        -3.42814854080000    1.02000011530000   -1.92413189860000
C        -2.17719639160000   -1.64961909650000   -0.12035302740000
C        -1.80365255120000   -2.40122312120000   -1.39935559070000
C        -1.85592550100000   -2.50899000230000    1.10338452570000
C         1.08585689840000    1.24686587280000   -0.10392940810000
C         2.42234338020000    0.94442414230000   -0.07708808500000
C         3.48881877430000    1.92376573570000   -0.05628418700000
C         4.69779903890000    1.74938804230000    0.46371599610000
H         4.71326044100000   -3.10620982250000    0.28915729480000
H         2.97294555160000   -3.03547650910000    0.85064823660000
H         4.56554976290000   -0.82276214260000   -0.53900318940000
H         0.86382257730000   -1.95600761890000   -0.03263486920000
H        -1.74147266650000    2.12975795690000    1.39215711970000
H        -3.56711921750000   -0.16082951320000    2.21610357400000
H        -4.01834710150000    1.20487084260000    1.20041960470000
H        -3.57078894460000    1.46808672860000    2.88340849170000
H        -1.07858883270000   -0.35223968580000    3.02344644530000
H        -1.21135740860000    1.29653114610000    3.62731736790000
H         0.07147608430000    0.87111630130000    2.49525263050000
H        -1.84009754770000    2.25563405810000   -1.24703282260000
H        -1.16951575760000   -0.02332983730000   -3.14987726270000
H        -0.02937920950000    1.16711131290000   -2.53464071220000
H        -1.36295102410000    1.67546360560000   -3.57068970130000
H        -3.61619875880000    0.00344629060000   -2.25938708940000
H        -3.70045838200000    1.69666811910000   -2.73284586670000
H        -4.07945789350000    1.22505351840000   -1.07866992700000
H        -3.26523197750000   -1.51873999260000   -0.13552050420000
H        -0.72786270000000   -2.52335230950000   -1.48884192180000
H        -2.15720288660000   -1.87167096920000   -2.27953528290000
H        -2.25826431040000   -3.39146052090000   -1.39900055840000
H        -0.78531597420000   -2.64791549030000    1.22287461200000
H        -2.31485498120000   -3.49200492880000    1.00122174210000
H        -2.24044276940000   -2.05362855470000    2.01159745050000
H         0.61169200860000    2.20845801700000   -0.11904435730000
H         3.22423888050000    2.88530773620000   -0.48192685950000
H         4.98853903710000    0.83020294120000    0.94205528440000
H         5.43553198190000    2.53402590770000    0.44552441080000
$end

$rem
BASIS = 6-31G*
GUI = 2
METHOD = B3LYP
PRINT_ORBITALS false
MOLDEN_FORMAT false
--------------------------------------------------------------
 ----------------------------------------------------------------
             Standard Nuclear Orientation (Angstroms)
    I     Atom           X                Y                Z
 ----------------------------------------------------------------
    1      C       3.8365385757    -2.5776701045    -0.2150999603
    2      C       3.7377251100    -1.2768556918    -0.4609294171
    3      C       2.5510026144    -0.4798404249    -0.2302807238
    4      C       1.2538242540    -0.9236161542    -0.2372737489
    5      N       0.3905159724     0.1213508640    -0.0723046071
    6      Si     -1.3770901001     0.1462154980     0.0459021287
    7      C      -1.7445808138     0.8176806876     1.8175269041
    8      C      -3.1887829580     0.5834273456     2.2587927810
    9      C      -0.7793689902     0.2655348606     2.8673537145
   10      C      -1.9549958990     1.4599089242    -1.2442238707
   11      C      -1.1295054971     1.4364752775    -2.5311382286
   12      C      -3.4415390123     1.3432849522    -1.5794722574
   13      C      -2.1455203472    -1.5858482307    -0.2810575901
   14      C      -1.8397623223    -2.1271011299    -1.6788588982
   15      C      -1.7806984387    -2.6303383896     0.7749784986
   16      C       1.1524130074     1.2526140220     0.0417106152
   17      C       2.4846998822     0.9421031852    -0.0418494008
   18      C       3.5636958124     1.8996170824     0.0840372315
   19      C       4.7924885551     1.6380203090     0.5130786914
   20      H       4.7368294932    -3.1283657271    -0.4282005678
   21      H       3.0246290137    -3.1376701551     0.2177515505
   22      H       4.5817360652    -0.7416290434    -0.8767934457
   23      H       0.8921152310    -1.9196684626    -0.3844931627
   24      H      -1.5929500349     1.9030819702     1.7885474747
   25      H      -3.4093278368    -0.4787444313     2.3236537455
   26      H      -3.8880015965     1.0333810292     1.5589930272
   27      H      -3.3617322457     1.0236389039     3.2397631369
   28      H      -0.8896757721    -0.8100744547     2.9738827288
   29      H      -0.9736345877     0.7227159912     3.8365745674
   30      H       0.2512781009     0.4749952129     2.5930177928
   31      H      -1.8086535391     2.4467140455    -0.7899853206
   32      H      -1.2541656493     0.4947704837    -3.0586044708
   33      H      -0.0720762880     1.5659593182    -2.3164476706
   34      H      -1.4442081499     2.2398935522    -3.1958225326
   35      H      -3.6577176628     0.3939022685    -2.0622557669
   36      H      -3.7411474167     2.1412537058    -2.2573595574
   37      H      -4.0513957820     1.4153049303    -0.6828427020
   38      H      -3.2313383762    -1.4479974255    -0.2246910047
   39      H      -0.7707745219    -2.2396364169    -1.8364915021
   40      H      -2.2256557849    -1.4625767614    -2.4467346767
   41      H      -2.3067563189    -3.1022309705    -1.8140642476
   42      H      -0.7076951140    -2.7925877814     0.8210429193
   43      H      -2.2565270873    -3.5820450782     0.5400033428
   44      H      -2.1179707764    -2.3226697852     1.7606993996
   45      H       0.6906134309     2.2071182439     0.2010313540
   46      H       3.2927666968     2.9180154748    -0.1713044066
   47      H       5.0924733293     0.6529298330     0.8258811223
   48      H       5.5388115796     2.4113693858     0.5849852779
 ----------------------------------------------------------------
 Molecular Point Group                 C1    NOp =  1
 Largest Abelian Subgroup              C1    NOp =  1
 Nuclear Repulsion Energy =        1672.49350732 hartrees
 There are       76 alpha and       76 beta electrons
 Requested basis set is 6-31G(d)
 There are 135 shells and 347 basis functions

 Total QAlloc Memory Limit   4000 MB
 Mega-Array Size       188 MB
 MEM_STATIC part       192 MB
 A cutoff of  1.0D-08 yielded   5284 shell pairs
 There are     37759 function pairs
 Smallest overlap matrix eigenvalue = 6.11E-04

 Scale SEOQF with 1.000000e-02/1.000000e-01/1.000000e-01

 Standard Electronic Orientation quadrupole field applied
 Nucleus-field energy     =    -0.0000000028 hartrees
 Guess from superposition of atomic densities
 Warning:  Energy on first SCF cycle will be non-variational
 SAD guess density has 152.000000 electrons

 -----------------------------------------------------------------------
  General SCF calculation program by
  Eric Jon Sundstrom, Paul Horn, Yuezhi Mao, Dmitri Zuev, Alec White,
  David Stuck, Shaama M.S., Shane Yost, Joonho Lee, David Small,
  Daniel Levine, Susi Lehtola, Hugh Burton, Evgeny Epifanovsky,
  Bang C. Huynh
 -----------------------------------------------------------------------
 Exchange:     0.2000 Hartree-Fock + 0.0800 Slater + 0.7200 B88
 Correlation:  0.1900 VWN1RPA + 0.8100 LYP
 Using SG-1 standard quadrature grid
 A restricted SCF calculation will be
 performed using DIIS
 SCF converges when DIIS error is below 1.0e-05
 ---------------------------------------
  Cycle       Energy         DIIS error
 ---------------------------------------
    1   -1013.3545573929      4.25e-02  
    2   -1009.0687047098      5.22e-03  
    3   -1008.9999098488      5.64e-03  
    4   -1009.5049967411      7.49e-04  
    5   -1009.5110172202      4.25e-04  
    6   -1009.5135960429      1.01e-04  
    7   -1009.5137398695      2.72e-05  
    8   -1009.5137493946      1.02e-05  
    9   -1009.5137509392      2.16e-06  Convergence criterion met
 ---------------------------------------
 SCF time:   CPU 123.90s  wall 124.00s 
 SCF   energy in the final basis set =    -1009.5137509392
 Total energy in the final basis set =    -1009.5137509392
 
 --------------------------------------------------------------
 
                    Orbital Energies (a.u.)
 --------------------------------------------------------------
 
 Alpha MOs
 -- Occupied --
-66.1425 -14.3563 -10.1960 -10.1959 -10.1880 -10.1810 -10.1803 -10.1795
-10.1784 -10.1778 -10.1777 -10.1770 -10.1756 -10.1699 -10.1694 -10.1687
-10.1672 -10.1636 -10.1621  -5.2854  -3.6461  -3.6434  -3.6431  -0.9668
 -0.8073  -0.7948  -0.7830  -0.7802  -0.7698  -0.7212  -0.7069  -0.6919
 -0.6855  -0.6832  -0.6162  -0.6056  -0.5851  -0.5824  -0.5693  -0.5521
 -0.5188  -0.5167  -0.4799  -0.4618  -0.4589  -0.4515  -0.4472  -0.4413
 -0.4358  -0.4323  -0.4184  -0.4140  -0.4082  -0.4061  -0.4021  -0.4003
 -0.3963  -0.3867  -0.3859  -0.3828  -0.3733  -0.3536  -0.3500  -0.3489
 -0.3447  -0.3395  -0.3361  -0.3329  -0.3270  -0.3247  -0.2983  -0.2763
 -0.2757  -0.2659  -0.2021  -0.1954
 -- Virtual --
  0.0022   0.0093   0.0546   0.0601   0.0701   0.0740   0.0841   0.0992
  0.1084   0.1190   0.1240   0.1272   0.1311   0.1347   0.1371   0.1399
  0.1471   0.1497   0.1578   0.1610   0.1652   0.1768   0.1807   0.1826
  0.1849   0.1874   0.1891   0.1927   0.2043   0.2048   0.2113   0.2207
  0.2263   0.2295   0.2335   0.2419   0.2434   0.2469   0.2587   0.2649
  0.2726   0.2800   0.2831   0.2899   0.3036   0.3448   0.3524   0.3596
  0.3657   0.3946   0.3986   0.4298   0.4344   0.4459   0.4511   0.4548
  0.4837   0.5040   0.5155   0.5192   0.5289   0.5375   0.5466   0.5508
  0.5630   0.5649   0.5807   0.5864   0.5936   0.6014   0.6080   0.6109
  0.6161   0.6318   0.6374   0.6401   0.6491   0.6619   0.6733   0.6831
  0.6939   0.6956   0.7004   0.7088   0.7200   0.7274   0.7395   0.7495
  0.7537   0.7626   0.7679   0.7818   0.7920   0.8015   0.8142   0.8192
  0.8268   0.8441   0.8564   0.8581   0.8720   0.8740   0.8766   0.8804
  0.8861   0.8912   0.8932   0.8990   0.9002   0.9041   0.9087   0.9121
  0.9181   0.9290   0.9310   0.9422   0.9471   0.9518   0.9557   0.9603
  0.9647   0.9665   0.9705   0.9765   0.9802   0.9822   0.9938   1.0001
  1.0182   1.0205   1.0235   1.0304   1.0353   1.0509   1.0568   1.0666
  1.0812   1.0852   1.0986   1.1168   1.1227   1.1402   1.1678   1.1943
  1.2171   1.2400   1.2544   1.2773   1.2923   1.3114   1.3745   1.3836
  1.3891   1.4324   1.4476   1.4519   1.4557   1.4574   1.4792   1.4948
  1.5058   1.5075   1.5177   1.5214   1.5287   1.5516   1.5751   1.5856
  1.6093   1.6204   1.6372   1.6501   1.6842   1.6940   1.7058   1.7157
  1.7479   1.7923   1.7954   1.7977   1.8224   1.8593   1.8668   1.9138
  1.9252   1.9320   1.9337   1.9388   1.9403   1.9512   1.9604   2.0097
  2.0126   2.0218   2.0289   2.0391   2.0429   2.0634   2.0768   2.0819
  2.0915   2.1103   2.1167   2.1191   2.1314   2.1603   2.1804   2.2044
  2.2269   2.2301   2.2449   2.2560   2.2589   2.2676   2.2725   2.2767
  2.2832   2.2879   2.2931   2.3133   2.3175   2.3235   2.3548   2.3689
  2.4076   2.4128   2.4175   2.4194   2.4494   2.4618   2.4721   2.4780
  2.5091   2.5723   2.5753   2.5793   2.5837   2.5932   2.6861   2.7047
  2.7078   2.7305   2.7346   2.7459   2.7772   2.8044   2.8420   2.9132
  2.9495   3.0698   3.1622   3.2403   3.2656   4.0627   4.1323   4.1395
  4.1769   4.1947   4.2053   4.2277   4.2550   4.2925   4.3062   4.3115
  4.3193   4.3524   4.4679   4.4818   4.5262   4.5429   4.7209
 --------------------------------------------------------------
 
          Ground-State Mulliken Net Atomic Charges

     Atom                 Charge (a.u.)
  ----------------------------------------
      1 C                    -0.359898
      2 C                    -0.112316
      3 C                     0.038469
      4 C                    -0.047180
      5 N                    -0.510953
      6 Si                    0.888248
      7 C                    -0.276030
      8 C                    -0.466678
      9 C                    -0.462078
     10 C                    -0.281401
     11 C                    -0.462045
     12 C                    -0.465904
     13 C                    -0.296811
     14 C                    -0.468525
     15 C                    -0.467832
     16 C                    -0.062666
     17 C                     0.055608
     18 C                    -0.110879
     19 C                    -0.361965
     20 H                     0.133302
     21 H                     0.128462
     22 H                     0.135551
     23 H                     0.145696
     24 H                     0.142494
     25 H                     0.148325
     26 H                     0.149592
     27 H                     0.144177
     28 H                     0.145622
     29 H                     0.136862
     30 H                     0.171356
     31 H                     0.141490
     32 H                     0.146924
     33 H                     0.166812
     34 H                     0.136295
     35 H                     0.148597
     36 H                     0.144362
     37 H                     0.150021
     38 H                     0.151035
     39 H                     0.160217
     40 H                     0.155572
     41 H                     0.143249
     42 H                     0.156617
     43 H                     0.143681
     44 H                     0.156325
     45 H                     0.145911
     46 H                     0.120317
     47 H                     0.148399
     48 H                     0.133573
  ----------------------------------------
  Sum of atomic charges =     0.000000

 -----------------------------------------------------------------
                    Cartesian Multipole Moments
 -----------------------------------------------------------------
    Charge (ESU x 10^10)
                -0.0000
    Dipole Moment (Debye)
         X      -2.9628      Y       0.1551      Z       0.0029
       Tot       2.9669
    Quadrupole Moments (Debye-Ang)
        XX    -127.7174     XY       1.1916     YY    -121.2339
        XZ      -0.3007     YZ       0.1553     ZZ    -130.0145
    Octopole Moments (Debye-Ang^2)
       XXX      -5.3586    XXY      -0.5846    XYY      -2.3135
       YYY       5.4929    XXZ      -2.7905    XYZ      -0.8844
       YYZ      -0.2613    XZZ     -14.6158    YZZ       1.6206
       ZZZ       2.1395
    Hexadecapole Moments (Debye-Ang^3)
      XXXX   -5080.7574   XXXY      16.0636   XXYY   -1133.3187
      XYYY      16.3042   YYYY   -1813.6462   XXXZ      -0.7716
      XXYZ       9.3762   XYYZ       2.5078   YYYZ      -5.2615
      XXZZ   -1160.4549   XYZZ      -6.0143   YYZZ    -587.1032
      XZZZ      -3.9883   YZZZ       1.0019   ZZZZ   -1601.7628
 -----------------------------------------------------------------
Archival summary:
1\1\nia2015.scinet.local\SP\ProcedureUnspecified\6-31G*\i111729\rhickman\TueFeb814:59:372022TueFeb814:59:372022\0\\#,ProcedureUnspecified,6-31G*,\\0,1\Si\N,1,1.77173\C,2,1.36546,1,130.51\H,3,1.06987,2,121.021,1,4.18811,0\C,2,1.36866,1,122.562,3,-177.712,0\H,5,1.07225,2,120.558,1,-0.521419,0\C,5,1.37054,2,110.413,1,177.899,0\C,3,1.37101,2,110.48,1,-177.973,0\C,8,1.44801,3,126.616,2,-175.852,0\H,9,1.08248,8,115.344,3,152,0\C,9,1.32752,8,124.81,3,-27.1732,0\H,11,1.07666,9,121.788,8,178.458,0\H,11,1.07711,9,121.854,8,-2.19474,0\C,7,1.44807,5,124.696,2,-177.894,0\H,14,1.08431,7,114.481,5,-25.1754,0\C,14,1.32757,7,125.979,5,152.524,0\H,16,1.07622,14,122.161,7,-0.790928,0\H,16,1.07714,14,121.428,7,-179.515,0\C,1,1.92287,2,112.006,3,-6.30927,0\H,19,1.09598,1,105.895,2,-177.727,0\C,19,1.52947,1,113.73,2,65.4771,0\H,21,1.08618,19,111.526,1,-60.8282,0\H,21,1.0863,19,111.042,1,59.7966,0\H,21,1.08967,19,110.084,1,179.231,0\C,19,1.5298,1,113.216,2,-61.0042,0\H,25,1.08634,19,111.004,1,-59.9098,0\H,25,1.08639,19,111.463,1,60.6302,0\H,25,1.08961,19,110.142,1,-179.359,0\C,1,1.92982,2,105.291,3,-128.668,0\H,29,1.09614,1,107.207,2,-79.3097,0\C,29,1.52833,1,112.704,2,163.43,0\H,31,1.08676,29,111.087,1,56.3244,0\H,31,1.0868,29,110.951,1,-64.1132,0\H,31,1.08906,29,110.378,1,176.217,0\C,29,1.5291,1,112.988,2,38.1875,0\H,35,1.08654,29,111.095,1,64.3598,0\H,35,1.08674,29,110.928,1,-55.9177,0\H,35,1.08918,29,110.262,1,-175.873,0\C,1,1.92991,2,104.839,3,116.786,0\H,39,1.09632,1,107.089,2,77.4282,0\C,39,1.52817,1,113.06,2,-165.137,0\H,41,1.08676,39,111.029,1,63.2033,0\H,41,1.08678,39,111.016,1,-57.2197,0\H,41,1.08904,39,110.379,1,-177.057,0\C,39,1.52926,1,112.605,2,-39.6194,0\H,45,1.08649,39,111.141,1,-64.2748,0\H,45,1.08691,39,110.833,1,56.0455,0\H,45,1.0891,39,110.291,1,175.886,0\\\@

 Total job time:  124.58s(wall), 124.26s(cpu) 
 Tue Feb  8 14:59:37 2022

        *************************************************************
        *                                                           *
        *  Thank you very much for using Q-Chem.  Have a nice day.  *
        *                                                           *
        *************************************************************


