
Running Job 1 of 1 fragments/C132/conf-2/spe_input.inp
qchem fragments/C132/conf-2/spe_input.inp_245656.0 /gpfs/fs0/scratch/a/aspuru/rhickman/descriptor_computation/qchem245656/ 0
/scinet/niagara/software/commercial/qc52/exe/qcprog.exe_s fragments/C132/conf-2/spe_input.inp_245656.0 /gpfs/fs0/scratch/a/aspuru/rhickman/descriptor_computation/qchem245656/
                  Welcome to Q-Chem
     A Quantum Leap Into The Future Of Chemistry


 Q-Chem 5.2, Q-Chem, Inc., Pleasanton, CA (2019)

 License issued to: SRG Alan Aspuru-Guzik, University of Toronto

 Yihan Shao,  Zhengting Gan,  E. Epifanovsky,  A. T. B. Gilbert,  M. Wormit,  
 J. Kussmann,  A. W. Lange,  A. Behn,  Jia Deng,  Xintian Feng,  D. Ghosh,  
 M. Goldey,  P. R. Horn,  L. D. Jacobson,  I. Kaliman,  T. Kus,  A. Landau,  
 Jie Liu,  E. I. Proynov,  R. M. Richard,  R. P. Steele,  E. J. Sundstrom,  
 H. L. Woodcock III,  P. M. Zimmerman,  D. Zuev,  B. Albrecht,  E. Alguire,  
 S. A. Baeppler,  D. Barton,  Z. Benda,  Y. A. Bernard,  E. J. Berquist,  
 K. B. Bravaya,  H. Burton,  D. Casanova,  Chun-Min Chang,  Yunqing Chen,  
 A. Chien,  K. D. Closser,  M. P. Coons,  S. Coriani,  S. Dasgupta,  
 A. L. Dempwolff,  M. Diedenhofen,  Hainam Do,  R. G. Edgar,  Po-Tung Fang,  
 S. Faraji,  S. Fatehi,  Qingguo Feng,  K. D. Fenk,  J. Fosso-Tande,  
 J. Gayvert,  Qinghui Ge,  A. Ghysels,  G. Gidofalvi,  J. Gomes,  
 J. Gonthier,  A. Gunina,  D. Hait,  M. W. D. Hanson-Heine,  
 P. H. P. Harbach,  A. W. Hauser,  M. F. Herbst,  J. E. Herr,  
 E. G. Hohenstein,  Z. C. Holden,  Kerwin Hui,  B. C. Huynh,  T.-C. Jagau,  
 Hyunjun Ji,  B. Kaduk,  K. Khistyaev,  Jaehoon Kim,  P. Klunzinger,  K. Koh,  
 D. Kosenkov,  L. Koulias,  T. Kowalczyk,  C. M. Krauter,  A. Kunitsa,  
 Ka Un Lao,  A. Laurent,  K. V. Lawler,  Joonho Lee,  D. Lefrancois,  
 S. Lehtola,  D. S. Levine,  Yi-Pei Li,  You-Sheng Lin,  Fenglai Liu,  
 E. Livshits,  A. Luenser,  P. Manohar,  E. Mansoor,  S. F. Manzer,  
 Shan-Ping Mao,  Yuezhi Mao,  N. Mardirossian,  A. V. Marenich,  
 T. Markovich,  L. A. Martinez-Martinez,  S. A. Maurer,  N. J. Mayhall,  
 S. C. McKenzie,  J.-M. Mewes,  P. Morgante,  A. F. Morrison,  
 J. W. Mullinax,  K. Nanda,  T. S. Nguyen-Beck,  R. Olivares-Amaya,  
 J. A. Parkhill,  Zheng Pei,  T. M. Perrine,  F. Plasser,  P. Pokhilko,  
 S. Prager,  A. Prociuk,  E. Ramos,  D. R. Rehn,  F. Rob,  M. Scheurer,  
 M. Schneider,  N. Sergueev,  S. M. Sharada,  S. Sharma,  D. W. Small,  
 T. Stauch,  T. Stein,  Yu-Chuan Su,  A. J. W. Thom,  A. Tkatchenko,  
 T. Tsuchimochi,  N. M. Tubman,  L. Vogt,  M. L. Vidal,  O. Vydrov,  
 M. A. Watson,  J. Wenzel,  M. de Wergifosse,  T. A. Wesolowski,  A. White,  
 J. Witte,  A. Yamada,  Jun Yang,  K. Yao,  S. Yeganeh,  S. R. Yost,  
 Zhi-Qiang You,  A. Zech,  Igor Ying Zhang,  Xing Zhang,  Yan Zhao,  
 Ying Zhu,  B. R. Brooks,  G. K. L. Chan,  C. J. Cramer,  M. S. Gordon,  
 W. J. Hehre,  A. Klamt,  M. W. Schmidt,  C. D. Sherrill,  D. G. Truhlar,  
 A. Aspuru-Guzik,  R. Baer,  A. T. Bell,  N. A. Besley,  Jeng-Da Chai,  
 A. E. DePrince, III,  R. A. DiStasio Jr.,  A. Dreuw,  B. D. Dunietz,  
 T. R. Furlani,  Chao-Ping Hsu,  Yousung Jung,  Jing Kong,  D. S. Lambrecht,  
 WanZhen Liang,  C. Ochsenfeld,  V. A. Rassolov,  L. V. Slipchenko,  
 J. E. Subotnik,  T. Van Voorhis,  J. M. Herbert,  A. I. Krylov,  
 P. M. W. Gill,  M. Head-Gordon

 Contributors to earlier versions of Q-Chem not listed above: 
 R. D. Adamson,  B. Austin,  J. Baker,  G. J. O. Beran,  K. Brandhorst,  
 S. T. Brown,  E. F. C. Byrd,  A. K. Chakraborty,  C.-L. Cheng,  
 Siu Hung Chien,  D. M. Chipman,  D. L. Crittenden,  H. Dachsel,  
 R. J. Doerksen,  A. D. Dutoi,  L. Fusti-Molnar,  W. A. Goddard III,  
 A. Golubeva-Zadorozhnaya,  S. R. Gwaltney,  G. Hawkins,  A. Heyden,  
 S. Hirata,  G. Kedziora,  F. J. Keil,  C. Kelley,  Jihan Kim,  R. A. King,  
 R. Z. Khaliullin,  P. P. Korambath,  W. Kurlancheek,  A. M. Lee,  M. S. Lee,  
 S. V. Levchenko,  Ching Yeh Lin,  D. Liotard,  R. C. Lochan,  I. Lotan,  
 P. E. Maslen,  N. Nair,  D. P. O'Neill,  D. Neuhauser,  E. Neuscamman,  
 C. M. Oana,  R. Olson,  B. Peters,  R. Peverati,  P. A. Pieniazek,  
 Y. M. Rhee,  J. Ritchie,  M. A. Rohrdanz,  E. Rosta,  N. J. Russ,  
 H. F. Schaefer III,  N. E. Schultz,  N. Shenvi,  A. C. Simmonett,  A. Sodt,  
 D. Stuck,  K. S. Thanthiriwatte,  V. Vanovschi,  Tao Wang,  A. Warshel,  
 C. F. Williams,  Q. Wu,  X. Xu,  W. Zhang

 Please cite Q-Chem as follows:
 Y. Shao et al., Mol. Phys. 113, 184-215 (2015)
 DOI: 10.1080/00268976.2014.952696

 Q-Chem 5.2.1 for Intel X86 EM64T Linux

 Parts of Q-Chem use Armadillo 8.300.2 (Tropical Shenanigans).
 http://arma.sourceforge.net/

 Q-Chem begins on Mon Feb  7 08:14:45 2022  

Host: 
0

     Scratch files written to /gpfs/fs0/scratch/a/aspuru/rhickman/descriptor_computation/qchem245656//
 Jul1719 |scratch|qcdevops|jenkins|workspace|build_RNUM -1
Processing $rem in /scinet/niagara/software/commercial/qc52/config/preferences:
	 MEM_TOTAL  4000 
NAlpha2: 80
NElect   80
Mult     1

Checking the input file for inconsistencies... 	...done.

--------------------------------------------------------------
User input:
--------------------------------------------------------------
$molecule
0 1
C        -3.10268406680000   -1.13283696060000    0.09465435220000
C        -1.79013147920000   -1.29490872380000   -0.03660694870000
C        -0.77920542230000   -0.26487450890000    0.00177902590000
C        -0.90538324600000    1.14394574170000   -0.04770074830000
C        -2.12156446360000    1.99383521660000   -0.13679395990000
N         0.28892803870000    1.70946487080000   -0.01880439500000
N         1.19165179750000    0.73356984010000    0.03481820840000
C         2.57490638070000    1.09171230010000    0.14671082120000
C         0.60732229980000   -0.49061060870000    0.05030093030000
C         1.28903071100000   -1.75818451780000    0.13769826830000
C         2.53718239710000   -2.04168781770000   -0.22331662220000
H        -3.77060409430000   -1.97645344860000    0.04723104710000
H        -3.56023738060000   -0.17561690920000    0.26152673900000
H        -1.40596481120000   -2.29635960220000   -0.19013879980000
H        -2.75171677750000    1.67429352860000   -0.96527504150000
H        -1.81639407410000    3.02527648260000   -0.29294721180000
H        -2.70003181880000    1.93600968080000    0.78475303710000
H         2.61326034260000    2.13551723270000    0.45494775520000
H         3.08793668950000    0.99211942650000   -0.81303795830000
H         3.07046489600000    0.46746183600000    0.89074552400000
H         0.67120356590000   -2.55552625950000    0.53160904660000
H         3.20501999440000   -1.32430117400000   -0.66437768130000
H         2.92733916530000   -3.03869029150000   -0.10938419190000
$end

$rem
BASIS = 6-31G*
GUI = 2
METHOD = B3LYP
PRINT_ORBITALS false
MOLDEN_FORMAT false
--------------------------------------------------------------
 ----------------------------------------------------------------
             Standard Nuclear Orientation (Angstroms)
    I     Atom           X                Y                Z
 ----------------------------------------------------------------
    1      C       2.8541235154     1.6527959165     0.0966384946
    2      C       1.5337714862     1.5816208106    -0.0371363304
    3      C       0.7192613899     0.3902324457     0.0026446518
    4      C       1.0908651079    -0.9746886359    -0.0425737894
    5      C       2.4375216440    -1.5981315123    -0.1273182732
    6      N       0.0143023180    -1.7409896114    -0.0139084142
    7      N      -1.0458086874    -0.9385676264     0.0354909128
    8      C      -2.3449503625    -1.5336646864     0.1462592186
    9      C      -0.6854588899     0.3692095093     0.0483530499
   10      C      -1.5792523823     1.4976624179     0.1310300931
   11      C      -2.8570487909     1.5567477785    -0.2327469844
   12      H       3.3636930656     2.6004302607     0.0478231781
   13      H       3.4722482783     0.7911837526     0.2669849407
   14      H       0.9801029971     2.4996927632    -0.1941554824
   15      H       3.0034929872    -1.1750673262    -0.9557341499
   16      H       2.3184528866    -2.6675226398    -0.2809709251
   17      H       2.9949758057    -1.4373001832     0.7949589533
   18      H      -2.2001235214    -2.5672012181     0.4574459714
   19      H      -2.8655365148    -1.5281340530    -0.8145716864
   20      H      -2.9439051069    -1.0041846116     0.8877162892
   21      H      -1.1117764788     2.3920804471     0.5236018754
   22      H      -3.3876965351     0.7321438240    -0.6727774385
   23      H      -3.4163795838     2.4700753862    -0.1222998003
 ----------------------------------------------------------------
 Molecular Point Group                 C1    NOp =  1
 Largest Abelian Subgroup              C1    NOp =  1
 Nuclear Repulsion Energy =         591.65969202 hartrees
 There are       40 alpha and       40 beta electrons
 Requested basis set is 6-31G(d)
 There are 68 shells and 189 basis functions

 Total QAlloc Memory Limit   4000 MB
 Mega-Array Size       188 MB
 MEM_STATIC part       192 MB
 A cutoff of  1.0D-08 yielded   1732 shell pairs
 There are     14857 function pairs
 Smallest overlap matrix eigenvalue = 7.02E-04

 Scale SEOQF with 1.000000e-01/1.000000e-01/1.000000e+00

 Standard Electronic Orientation quadrupole field applied
 Nucleus-field energy     =     0.0000000180 hartrees
 Guess from superposition of atomic densities
 Warning:  Energy on first SCF cycle will be non-variational
 SAD guess density has 80.000000 electrons

 -----------------------------------------------------------------------
  General SCF calculation program by
  Eric Jon Sundstrom, Paul Horn, Yuezhi Mao, Dmitri Zuev, Alec White,
  David Stuck, Shaama M.S., Shane Yost, Joonho Lee, David Small,
  Daniel Levine, Susi Lehtola, Hugh Burton, Evgeny Epifanovsky,
  Bang C. Huynh
 -----------------------------------------------------------------------
 Exchange:     0.2000 Hartree-Fock + 0.0800 Slater + 0.7200 B88
 Correlation:  0.1900 VWN1RPA + 0.8100 LYP
 Using SG-1 standard quadrature grid
 A restricted SCF calculation will be
 performed using DIIS
 SCF converges when DIIS error is below 1.0e-05
 ---------------------------------------
  Cycle       Energy         DIIS error
 ---------------------------------------
    1    -462.2119044000      6.02e-02  
    2    -459.4504971251      6.15e-03  
    3    -459.4077399195      7.06e-03  
    4    -459.6129607715      2.08e-03  
    5    -459.6313033844      3.95e-04  
    6    -459.6318970577      1.46e-04  
    7    -459.6319743698      4.81e-05  
    8    -459.6319822724      2.22e-05  
    9    -459.6319843417      2.89e-06  Convergence criterion met
 ---------------------------------------
 SCF time:   CPU 28.72s  wall 29.00s 
 SCF   energy in the final basis set =     -459.6319843417
 Total energy in the final basis set =     -459.6319843417
 
 --------------------------------------------------------------
 
                    Orbital Energies (a.u.)
 --------------------------------------------------------------
 
 Alpha MOs
 -- Occupied --
-14.4070 -14.3352 -10.2258 -10.2196 -10.2026 -10.2001 -10.1887 -10.1865
-10.1782 -10.1746 -10.1700  -1.0530  -0.8520  -0.8229  -0.7740  -0.7471
 -0.7281  -0.6732  -0.6201  -0.6099  -0.5524  -0.5346  -0.4958  -0.4823
 -0.4741  -0.4522  -0.4331  -0.4258  -0.4225  -0.4093  -0.3891  -0.3852
 -0.3751  -0.3627  -0.3426  -0.3104  -0.2948  -0.2763  -0.2275  -0.2045
 -- Virtual --
 -0.0299   0.0171   0.0633   0.0997   0.1049   0.1151   0.1236   0.1373
  0.1446   0.1600   0.1654   0.1709   0.1821   0.1980   0.2014   0.2101
  0.2270   0.2512   0.2735   0.2995   0.3155   0.3401   0.3430   0.3673
  0.3860   0.4378   0.4617   0.4899   0.4907   0.5124   0.5393   0.5453
  0.5558   0.5648   0.5843   0.5931   0.6104   0.6168   0.6263   0.6516
  0.6676   0.6814   0.6937   0.6972   0.7091   0.7354   0.7530   0.7665
  0.7784   0.7982   0.8206   0.8377   0.8520   0.8551   0.8597   0.8803
  0.8884   0.9040   0.9073   0.9163   0.9239   0.9365   0.9554   0.9763
  0.9795   1.0005   1.0172   1.0281   1.0494   1.0630   1.1218   1.1473
  1.1831   1.1981   1.2232   1.2551   1.3002   1.3295   1.3455   1.3899
  1.3973   1.4153   1.4529   1.4657   1.4931   1.5034   1.5338   1.5754
  1.6336   1.6539   1.6702   1.6871   1.7779   1.8190   1.8377   1.8675
  1.8839   1.9213   1.9400   1.9498   1.9918   1.9967   2.0228   2.0375
  2.0586   2.0807   2.1115   2.1569   2.1651   2.1783   2.2045   2.2137
  2.2454   2.2557   2.2885   2.2994   2.3190   2.3496   2.3779   2.3917
  2.4463   2.4698   2.4912   2.5213   2.5809   2.6062   2.6523   2.6766
  2.7112   2.7315   2.7671   2.8105   2.8476   2.9678   3.0505   3.1959
  3.2454   3.3325   3.8902   4.0898   4.1184   4.1378   4.1761   4.2038
  4.2509   4.3347   4.3948   4.5039   4.7400
 --------------------------------------------------------------
 
          Ground-State Mulliken Net Atomic Charges

     Atom                 Charge (a.u.)
  ----------------------------------------
      1 C                    -0.366055
      2 C                    -0.112665
      3 C                    -0.041946
      4 C                     0.294258
      5 C                    -0.529319
      6 N                    -0.353743
      7 N                    -0.323263
      8 C                    -0.326241
      9 C                     0.329483
     10 C                    -0.092396
     11 C                    -0.356358
     12 H                     0.136471
     13 H                     0.142313
     14 H                     0.121959
     15 H                     0.164716
     16 H                     0.170905
     17 H                     0.163101
     18 H                     0.192903
     19 H                     0.170120
     20 H                     0.176359
     21 H                     0.145255
     22 H                     0.146204
     23 H                     0.147937
  ----------------------------------------
  Sum of atomic charges =     0.000000

 -----------------------------------------------------------------
                    Cartesian Multipole Moments
 -----------------------------------------------------------------
    Charge (ESU x 10^10)
                 0.0000
    Dipole Moment (Debye)
         X      -1.6495      Y       0.7504      Z       0.1726
       Tot       1.8203
    Quadrupole Moments (Debye-Ang)
        XX     -56.7965     XY       0.7626     YY     -64.9490
        XZ       0.2353     YZ       0.1664     ZZ     -68.2713
    Octopole Moments (Debye-Ang^2)
       XXX     -14.0056    XXY      -9.6835    XYY      -6.6743
       YYY      10.9749    XXZ      -1.0613    XYZ      -0.2225
       YYZ       2.1383    XZZ      -2.8182    YZZ      -6.2488
       ZZZ       0.1332
    Hexadecapole Moments (Debye-Ang^3)
      XXXX   -1503.3112   XXXY       9.1004   XXYY    -374.3801
      XYYY       6.4533   YYYY    -865.7180   XXXZ      14.0799
      XXYZ      -1.4664   XYYZ      -6.3349   YYYZ       1.0977
      XXZZ    -286.1692   XYZZ       0.2544   YYZZ    -171.9172
      XZZZ      -0.8803   YZZZ       0.3603   ZZZZ     -90.3435
 -----------------------------------------------------------------
Archival summary:
1\1\nia0005.scinet.local\SP\ProcedureUnspecified\6-31G*\2912\rhickman\MonFeb708:15:142022MonFeb708:15:142022\0\\#,ProcedureUnspecified,6-31G*,\\0,1\N\N,1,1.33047\C,2,1.32175,1,107.465\C,1,1.35658,2,111.723,3,-0.370801,0\C,4,1.40562,1,106.235,2,0.0252075,0\C,1,1.43324,2,118.339,3,-176.744,0\H,6,1.08904,1,107.193,2,16.0518,0\H,6,1.09035,1,110.417,2,135.688,0\H,6,1.09281,1,111.208,2,-102.547,0\C,4,1.44191,1,126.181,2,-178.399,0\H,10,1.08288,4,113.553,1,156.484,0\C,10,1.32988,4,127.928,1,-24.8192,0\H,12,1.0748,10,123.524,4,-1.50534,0\H,12,1.07667,10,120.583,4,-179.686,0\C,5,1.44375,4,125.243,1,178.274,0\H,15,1.08354,5,114.513,4,-9.60557,0\C,15,1.32902,5,127.006,4,170.388,0\H,17,1.074,15,123.01,5,-0.775782,0\H,17,1.07706,15,120.836,5,179.855,0\C,3,1.48639,2,119.735,1,-178.786,0\H,20,1.08691,3,108.753,2,7.04242,0\H,20,1.08884,3,110.569,2,127.143,0\H,20,1.08959,3,110.692,2,-112.333,0\\\@

 Total job time:  29.00s(wall), 28.89s(cpu) 
 Mon Feb  7 08:15:14 2022

        *************************************************************
        *                                                           *
        *  Thank you very much for using Q-Chem.  Have a nice day.  *
        *                                                           *
        *************************************************************


