23
 energy: -31.182633173142 gnorm: 0.000059082522 xtb: 6.4.1 (23d549d)
C        -3.10268406680000   -1.13283696060000    0.09465435220000
C        -1.79013147920000   -1.29490872380000   -0.03660694870000
C        -0.77920542230000   -0.26487450890000    0.00177902590000
C        -0.90538324600000    1.14394574170000   -0.04770074830000
C        -2.12156446360000    1.99383521660000   -0.13679395990000
N         0.28892803870000    1.70946487080000   -0.01880439500000
N         1.19165179750000    0.73356984010000    0.03481820840000
C         2.57490638070000    1.09171230010000    0.14671082120000
C         0.60732229980000   -0.49061060870000    0.05030093030000
C         1.28903071100000   -1.75818451780000    0.13769826830000
C         2.53718239710000   -2.04168781770000   -0.22331662220000
H        -3.77060409430000   -1.97645344860000    0.04723104710000
H        -3.56023738060000   -0.17561690920000    0.26152673900000
H        -1.40596481120000   -2.29635960220000   -0.19013879980000
H        -2.75171677750000    1.67429352860000   -0.96527504150000
H        -1.81639407410000    3.02527648260000   -0.29294721180000
H        -2.70003181880000    1.93600968080000    0.78475303710000
H         2.61326034260000    2.13551723270000    0.45494775520000
H         3.08793668950000    0.99211942650000   -0.81303795830000
H         3.07046489600000    0.46746183600000    0.89074552400000
H         0.67120356590000   -2.55552625950000    0.53160904660000
H         3.20501999440000   -1.32430117400000   -0.66437768130000
H         2.92733916530000   -3.03869029150000   -0.10938419190000
