22
 energy: -29.870604364763 gnorm: 0.000050887103 xtb: 6.4.1 (23d549d)
C         3.20006640300000   -1.05626378660000    0.35666784720000
C         2.63032400120000   -0.01749335830000   -0.24312910840000
C         1.23273356300000    0.39691693070000   -0.12219968320000
C         0.96216068110000    1.76281779690000   -0.08556093090000
C        -0.32595475970000    2.23728646160000    0.06186334550000
C        -1.37236189430000    1.34023877790000    0.16839720520000
C        -1.15149577690000   -0.03045054210000    0.10543196720000
C        -2.26878067460000   -0.96493551610000    0.24594390800000
C        -3.50051118570000   -0.74818728960000   -0.19606742330000
C         0.16193377180000   -0.51441508030000   -0.06111804430000
N         0.38348479970000   -1.87418784170000   -0.16723693380000
H         4.24840699380000   -1.27023243570000    0.22915842380000
H         2.66039735780000   -1.70065304870000    1.03000558480000
H         3.24278985200000    0.64004538650000   -0.85018781040000
H         1.78781307330000    2.45683174030000   -0.15580361520000
H        -0.51328113060000    3.29966768430000    0.10303579410000
H        -2.37892419900000    1.70072403320000    0.31797485320000
H        -2.04766305980000   -1.88791355140000    0.76910896990000
H        -3.76378724210000    0.14466706020000   -0.73811590860000
H        -4.29184603200000   -1.46195697980000   -0.04108621640000
H        -0.39638734550000   -2.41409439810000   -0.50657901220000
H         1.26994840140000   -2.12782817040000   -0.57704073490000
