
Running Job 1 of 1 fragments/C044/conf-2/spe_input.inp
qchem fragments/C044/conf-2/spe_input.inp_322883.0 /gpfs/fs0/scratch/a/aspuru/rhickman/descriptor_computation/qchem322883/ 0
/scinet/niagara/software/commercial/qc52/exe/qcprog.exe_s fragments/C044/conf-2/spe_input.inp_322883.0 /gpfs/fs0/scratch/a/aspuru/rhickman/descriptor_computation/qchem322883/
                  Welcome to Q-Chem
     A Quantum Leap Into The Future Of Chemistry


 Q-Chem 5.2, Q-Chem, Inc., Pleasanton, CA (2019)

 License issued to: SRG Alan Aspuru-Guzik, University of Toronto

 Yihan Shao,  Zhengting Gan,  E. Epifanovsky,  A. T. B. Gilbert,  M. Wormit,  
 J. Kussmann,  A. W. Lange,  A. Behn,  Jia Deng,  Xintian Feng,  D. Ghosh,  
 M. Goldey,  P. R. Horn,  L. D. Jacobson,  I. Kaliman,  T. Kus,  A. Landau,  
 Jie Liu,  E. I. Proynov,  R. M. Richard,  R. P. Steele,  E. J. Sundstrom,  
 H. L. Woodcock III,  P. M. Zimmerman,  D. Zuev,  B. Albrecht,  E. Alguire,  
 S. A. Baeppler,  D. Barton,  Z. Benda,  Y. A. Bernard,  E. J. Berquist,  
 K. B. Bravaya,  H. Burton,  D. Casanova,  Chun-Min Chang,  Yunqing Chen,  
 A. Chien,  K. D. Closser,  M. P. Coons,  S. Coriani,  S. Dasgupta,  
 A. L. Dempwolff,  M. Diedenhofen,  Hainam Do,  R. G. Edgar,  Po-Tung Fang,  
 S. Faraji,  S. Fatehi,  Qingguo Feng,  K. D. Fenk,  J. Fosso-Tande,  
 J. Gayvert,  Qinghui Ge,  A. Ghysels,  G. Gidofalvi,  J. Gomes,  
 J. Gonthier,  A. Gunina,  D. Hait,  M. W. D. Hanson-Heine,  
 P. H. P. Harbach,  A. W. Hauser,  M. F. Herbst,  J. E. Herr,  
 E. G. Hohenstein,  Z. C. Holden,  Kerwin Hui,  B. C. Huynh,  T.-C. Jagau,  
 Hyunjun Ji,  B. Kaduk,  K. Khistyaev,  Jaehoon Kim,  P. Klunzinger,  K. Koh,  
 D. Kosenkov,  L. Koulias,  T. Kowalczyk,  C. M. Krauter,  A. Kunitsa,  
 Ka Un Lao,  A. Laurent,  K. V. Lawler,  Joonho Lee,  D. Lefrancois,  
 S. Lehtola,  D. S. Levine,  Yi-Pei Li,  You-Sheng Lin,  Fenglai Liu,  
 E. Livshits,  A. Luenser,  P. Manohar,  E. Mansoor,  S. F. Manzer,  
 Shan-Ping Mao,  Yuezhi Mao,  N. Mardirossian,  A. V. Marenich,  
 T. Markovich,  L. A. Martinez-Martinez,  S. A. Maurer,  N. J. Mayhall,  
 S. C. McKenzie,  J.-M. Mewes,  P. Morgante,  A. F. Morrison,  
 J. W. Mullinax,  K. Nanda,  T. S. Nguyen-Beck,  R. Olivares-Amaya,  
 J. A. Parkhill,  Zheng Pei,  T. M. Perrine,  F. Plasser,  P. Pokhilko,  
 S. Prager,  A. Prociuk,  E. Ramos,  D. R. Rehn,  F. Rob,  M. Scheurer,  
 M. Schneider,  N. Sergueev,  S. M. Sharada,  S. Sharma,  D. W. Small,  
 T. Stauch,  T. Stein,  Yu-Chuan Su,  A. J. W. Thom,  A. Tkatchenko,  
 T. Tsuchimochi,  N. M. Tubman,  L. Vogt,  M. L. Vidal,  O. Vydrov,  
 M. A. Watson,  J. Wenzel,  M. de Wergifosse,  T. A. Wesolowski,  A. White,  
 J. Witte,  A. Yamada,  Jun Yang,  K. Yao,  S. Yeganeh,  S. R. Yost,  
 Zhi-Qiang You,  A. Zech,  Igor Ying Zhang,  Xing Zhang,  Yan Zhao,  
 Ying Zhu,  B. R. Brooks,  G. K. L. Chan,  C. J. Cramer,  M. S. Gordon,  
 W. J. Hehre,  A. Klamt,  M. W. Schmidt,  C. D. Sherrill,  D. G. Truhlar,  
 A. Aspuru-Guzik,  R. Baer,  A. T. Bell,  N. A. Besley,  Jeng-Da Chai,  
 A. E. DePrince, III,  R. A. DiStasio Jr.,  A. Dreuw,  B. D. Dunietz,  
 T. R. Furlani,  Chao-Ping Hsu,  Yousung Jung,  Jing Kong,  D. S. Lambrecht,  
 WanZhen Liang,  C. Ochsenfeld,  V. A. Rassolov,  L. V. Slipchenko,  
 J. E. Subotnik,  T. Van Voorhis,  J. M. Herbert,  A. I. Krylov,  
 P. M. W. Gill,  M. Head-Gordon

 Contributors to earlier versions of Q-Chem not listed above: 
 R. D. Adamson,  B. Austin,  J. Baker,  G. J. O. Beran,  K. Brandhorst,  
 S. T. Brown,  E. F. C. Byrd,  A. K. Chakraborty,  C.-L. Cheng,  
 Siu Hung Chien,  D. M. Chipman,  D. L. Crittenden,  H. Dachsel,  
 R. J. Doerksen,  A. D. Dutoi,  L. Fusti-Molnar,  W. A. Goddard III,  
 A. Golubeva-Zadorozhnaya,  S. R. Gwaltney,  G. Hawkins,  A. Heyden,  
 S. Hirata,  G. Kedziora,  F. J. Keil,  C. Kelley,  Jihan Kim,  R. A. King,  
 R. Z. Khaliullin,  P. P. Korambath,  W. Kurlancheek,  A. M. Lee,  M. S. Lee,  
 S. V. Levchenko,  Ching Yeh Lin,  D. Liotard,  R. C. Lochan,  I. Lotan,  
 P. E. Maslen,  N. Nair,  D. P. O'Neill,  D. Neuhauser,  E. Neuscamman,  
 C. M. Oana,  R. Olson,  B. Peters,  R. Peverati,  P. A. Pieniazek,  
 Y. M. Rhee,  J. Ritchie,  M. A. Rohrdanz,  E. Rosta,  N. J. Russ,  
 H. F. Schaefer III,  N. E. Schultz,  N. Shenvi,  A. C. Simmonett,  A. Sodt,  
 D. Stuck,  K. S. Thanthiriwatte,  V. Vanovschi,  Tao Wang,  A. Warshel,  
 C. F. Williams,  Q. Wu,  X. Xu,  W. Zhang

 Please cite Q-Chem as follows:
 Y. Shao et al., Mol. Phys. 113, 184-215 (2015)
 DOI: 10.1080/00268976.2014.952696

 Q-Chem 5.2.1 for Intel X86 EM64T Linux

 Parts of Q-Chem use Armadillo 8.300.2 (Tropical Shenanigans).
 http://arma.sourceforge.net/

 Q-Chem begins on Tue Feb  8 14:33:03 2022  

Host: 
0

     Scratch files written to /gpfs/fs0/scratch/a/aspuru/rhickman/descriptor_computation/qchem322883//
 Jul1719 |scratch|qcdevops|jenkins|workspace|build_RNUM -1
Processing $rem in /scinet/niagara/software/commercial/qc52/config/preferences:
	 MEM_TOTAL  4000 
NAlpha2: 110
NElect   110
Mult     1

Checking the input file for inconsistencies... 	...done.

--------------------------------------------------------------
User input:
--------------------------------------------------------------
$molecule
0 1
C         4.77801833010000    0.09232839230000   -0.18287394610000
C         3.57773859720000    0.66014586020000   -0.14617193400000
C         2.29612828840000   -0.02433078470000   -0.04909726780000
C         2.16413551420000   -1.41476170890000    0.03907186400000
C         0.92778830940000   -2.01838408340000    0.12159147560000
C        -0.25413972020000   -1.26730484120000    0.12688826370000
C        -1.57497860640000   -1.87516581470000    0.18936470680000
C        -1.83199998910000   -3.06822556360000    0.71370660880000
C        -0.10382871780000    0.11273201360000    0.03864392150000
S        -1.50595134530000    1.19011190480000    0.05107493290000
O        -2.51912369280000    0.80518577400000    0.96877683120000
O        -1.10771992420000    2.55090306360000   -0.03269388300000
F        -2.10454449400000    0.81479714700000   -1.44611240220000
C         1.12079695130000    0.73070041420000   -0.04626806530000
H         5.67202615620000    0.68664146230000   -0.25676536380000
H         4.92432076710000   -0.97333632980000   -0.14317416510000
H         3.50304464700000    1.73884031170000   -0.19302410440000
H         3.04722339000000   -2.03430458550000    0.03589308550000
H         0.86452519740000   -3.09457579660000    0.16243714730000
H        -2.38173836830000   -1.27734039500000   -0.20503805330000
H        -1.06891761010000   -3.68170615800000    1.16344669260000
H        -2.83188859350000   -3.46432524460000    0.73199200420000
H         1.14281653750000    1.80717171020000   -0.11264089000000
$end

$rem
BASIS = 6-31G*
GUI = 2
METHOD = B3LYP
PRINT_ORBITALS false
MOLDEN_FORMAT false
--------------------------------------------------------------
 ----------------------------------------------------------------
             Standard Nuclear Orientation (Angstroms)
    I     Atom           X                Y                Z
 ----------------------------------------------------------------
    1      C       4.6909627981     0.4925321636     0.0009834476
    2      C       3.4516522948     0.9659388111     0.0675475096
    3      C       2.2216061318     0.1876677874     0.0258653517
    4      C       2.1897460230    -1.2077958077    -0.0749331182
    5      C       0.9992847647    -1.9010567237    -0.1186956932
    6      C      -0.2343279026    -1.2410058045    -0.0584086942
    7      C      -1.5081547410    -1.9416107702    -0.1257251127
    8      C      -1.6912139779    -3.2090999325     0.2269029137
    9      C      -0.1834403109     0.1454593388     0.0416265066
   10      S      -1.6607402094     1.1118942642     0.1437948349
   11      O      -2.6678659378     0.5382549891     0.9644645952
   12      O      -1.3614068812     2.4958753388     0.2549433874
   13      F      -2.1885321448     0.9002679584    -1.4110025220
   14      C       0.9943476260     0.8524124389     0.0844740177
   15      H       5.5405866678     1.1517635403     0.0393400881
   16      H       4.9140164052    -0.5561414825    -0.0946849789
   17      H       3.2992265031     2.0334032828     0.1605099295
   18      H       3.1157175602    -1.7587623348    -0.1268972909
   19      H       1.0141613362    -2.9747801157    -0.2224066329
   20      H      -2.3454500774    -1.3535182580    -0.4676224655
   21      H      -0.8978403268    -3.8231092816     0.6199297178
   22      H      -2.6594188525    -3.6722507254     0.1556484540
   23      H       0.9390397546     1.9269838919     0.1614018859
 ----------------------------------------------------------------
 Molecular Point Group                 C1    NOp =  1
 Largest Abelian Subgroup              C1    NOp =  1
 Nuclear Repulsion Energy =        1011.43025135 hartrees
 There are       55 alpha and       55 beta electrons
 Requested basis set is 6-31G(d)
 There are 75 shells and 232 basis functions

 Total QAlloc Memory Limit   4000 MB
 Mega-Array Size       188 MB
 MEM_STATIC part       192 MB
 A cutoff of  1.0D-08 yielded   1847 shell pairs
 There are     19388 function pairs
 Smallest overlap matrix eigenvalue = 3.55E-04

 Scale SEOQF with 1.000000e-02/1.000000e-01/1.000000e+00

 Standard Electronic Orientation quadrupole field applied
 Nucleus-field energy     =    -0.0000000086 hartrees
 Guess from superposition of atomic densities
 Warning:  Energy on first SCF cycle will be non-variational
 SAD guess density has 110.000000 electrons

 -----------------------------------------------------------------------
  General SCF calculation program by
  Eric Jon Sundstrom, Paul Horn, Yuezhi Mao, Dmitri Zuev, Alec White,
  David Stuck, Shaama M.S., Shane Yost, Joonho Lee, David Small,
  Daniel Levine, Susi Lehtola, Hugh Burton, Evgeny Epifanovsky,
  Bang C. Huynh
 -----------------------------------------------------------------------
 Exchange:     0.2000 Hartree-Fock + 0.0800 Slater + 0.7200 B88
 Correlation:  0.1900 VWN1RPA + 0.8100 LYP
 Using SG-1 standard quadrature grid
 A restricted SCF calculation will be
 performed using DIIS
 SCF converges when DIIS error is below 1.0e-05
 ---------------------------------------
  Cycle       Energy         DIIS error
 ---------------------------------------
    1   -1038.4048440628      5.50e-02  
    2   -1034.4924093737      7.92e-03  
    3   -1033.8964808792      1.36e-02  
    4   -1034.8180304190      2.31e-03  
    5   -1034.8500554614      6.92e-04  
    6   -1034.8523823906      3.06e-04  
    7   -1034.8529532516      7.36e-05  
    8   -1034.8529870724      2.77e-05  
    9   -1034.8529916377      7.05e-06  Convergence criterion met
 ---------------------------------------
 SCF time:   CPU 37.49s  wall 37.00s 
 SCF   energy in the final basis set =    -1034.8529916377
 Total energy in the final basis set =    -1034.8529916377
 
 --------------------------------------------------------------
 
                    Orbital Energies (a.u.)
 --------------------------------------------------------------
 
 Alpha MOs
 -- Occupied --
-89.1481 -24.7190 -19.1723 -19.1718 -10.2460 -10.2353 -10.2256 -10.2238
-10.2202 -10.2186 -10.2101 -10.2067 -10.2001 -10.1997  -8.1731  -6.1395
 -6.1368  -6.1351  -1.2309  -1.1286  -1.0470  -0.9066  -0.8374  -0.8051
 -0.7861  -0.7454  -0.6966  -0.6618  -0.6320  -0.5940  -0.5908  -0.5477
 -0.5266  -0.5176  -0.5062  -0.4887  -0.4829  -0.4665  -0.4487  -0.4406
 -0.4352  -0.4317  -0.4145  -0.4044  -0.3972  -0.3879  -0.3746  -0.3672
 -0.3496  -0.3472  -0.3367  -0.3240  -0.2955  -0.2851  -0.2377
 -- Virtual --
 -0.0757  -0.0443  -0.0033   0.0287   0.0509   0.0710   0.0889   0.0993
  0.1130   0.1156   0.1269   0.1336   0.1494   0.1735   0.1778   0.1919
  0.2030   0.2211   0.2480   0.2668   0.2945   0.3078   0.3179   0.3348
  0.3409   0.3550   0.3655   0.3775   0.4214   0.4436   0.4646   0.4913
  0.4987   0.5101   0.5197   0.5418   0.5483   0.5540   0.5700   0.5771
  0.5803   0.5885   0.5897   0.5950   0.6118   0.6331   0.6491   0.6643
  0.6656   0.6833   0.6989   0.7212   0.7471   0.7634   0.7822   0.7949
  0.8130   0.8185   0.8331   0.8496   0.8531   0.8698   0.8733   0.8755
  0.9197   0.9250   0.9392   0.9430   0.9511   0.9583   0.9877   0.9988
  1.0072   1.0203   1.0361   1.0577   1.0863   1.1112   1.1126   1.1283
  1.1441   1.1713   1.1801   1.2059   1.2244   1.2478   1.2710   1.2791
  1.2987   1.3268   1.3298   1.3520   1.3823   1.4121   1.4283   1.4339
  1.4530   1.4827   1.4864   1.4952   1.5179   1.5268   1.5582   1.6302
  1.6548   1.6636   1.7213   1.7585   1.7679   1.7809   1.7863   1.7950
  1.8078   1.8266   1.8427   1.8512   1.8600   1.8871   1.8964   1.9305
  1.9384   1.9567   1.9744   1.9830   1.9875   2.0020   2.0379   2.0618
  2.1000   2.1050   2.1356   2.1422   2.1537   2.1722   2.1951   2.2215
  2.2334   2.2504   2.2807   2.2972   2.3068   2.3309   2.3917   2.4017
  2.4536   2.4974   2.5466   2.5733   2.5898   2.6097   2.6413   2.6928
  2.7121   2.7333   2.7733   2.7887   2.8655   2.8763   2.9206   2.9689
  3.0680   3.2022   3.4100   3.7387   3.9378   4.0076   4.0640   4.0925
  4.1136   4.1183   4.1422   4.2143   4.3022   4.3305   4.4907   4.7285
  4.7849
 --------------------------------------------------------------
 
          Ground-State Mulliken Net Atomic Charges

     Atom                 Charge (a.u.)
  ----------------------------------------
      1 C                    -0.348628
      2 C                    -0.110051
      3 C                     0.183848
      4 C                    -0.170314
      5 C                    -0.173744
      6 C                     0.181194
      7 C                    -0.127549
      8 C                    -0.344655
      9 C                    -0.247257
     10 S                     1.232426
     11 O                    -0.467007
     12 O                    -0.456571
     13 F                    -0.334571
     14 C                    -0.234978
     15 H                     0.156712
     16 H                     0.148338
     17 H                     0.142098
     18 H                     0.144074
     19 H                     0.148178
     20 H                     0.176478
     21 H                     0.149664
     22 H                     0.160844
     23 H                     0.191471
  ----------------------------------------
  Sum of atomic charges =     0.000000

 -----------------------------------------------------------------
                    Cartesian Multipole Moments
 -----------------------------------------------------------------
    Charge (ESU x 10^10)
                 0.0000
    Dipole Moment (Debye)
         X       4.2325      Y      -3.1541      Z      -0.3988
       Tot       5.2936
    Quadrupole Moments (Debye-Ang)
        XX     -83.1090     XY       5.4314     YY     -82.2891
        XZ       2.1078     YZ      -0.3224     ZZ     -91.6106
    Octopole Moments (Debye-Ang^2)
       XXX      19.3857    XXY      -5.8789    XYY       1.5355
       YYY     -16.1006    XXZ     -10.5630    XYZ       2.5358
       YYZ       0.2410    XZZ     -13.4012    YZZ       9.0442
       ZZZ      -5.3015
    Hexadecapole Moments (Debye-Ang^3)
      XXXX   -2462.0959   XXXY       8.5362   XXYY    -607.5252
      XYYY      17.3767   YYYY   -1269.3865   XXXZ      33.4904
      XXYZ       2.4754   XYYZ       4.1330   YYYZ     -23.6773
      XXZZ    -522.6669   XYZZ     -16.1085   YYZZ    -262.7698
      XZZZ      12.8038   YZZZ      -3.7499   ZZZZ    -185.7535
 -----------------------------------------------------------------
Archival summary:
1\1\nia2015.scinet.local\SP\ProcedureUnspecified\6-31G*\112109\rhickman\TueFeb814:33:412022TueFeb814:33:412022\0\\#,ProcedureUnspecified,6-31G*,\\0,1\S\O,1,1.42016\O,1,1.42034,2,119.856\F,1,1.65552,2,105.366,3,-118.354,0\C,1,1.76829,2,113.897,3,135.202,0\C,5,1.37434,1,115.66,2,-139.013,0\H,6,1.07874,5,118.079,1,-0.855349,0\C,5,1.391,1,121.221,2,40.2242,0\C,6,1.39696,5,120.451,1,179.306,0\C,9,1.39946,6,117.227,5,-0.0813022,0\H,10,1.07874,9,119.552,6,179.746,0\C,10,1.3783,9,121.567,6,0.180063,0\H,12,1.07882,10,119.455,9,178.422,0\C,8,1.45534,5,121.01,1,1.99419,0\H,14,1.0788,8,115.567,5,22.4611,0\C,14,1.3283,8,124.591,5,-156.002,0\H,16,1.07564,14,121.153,8,179.916,0\H,16,1.07746,14,122.625,8,1.4717,0\C,9,1.45618,6,119.115,5,179.73,0\H,19,1.08229,9,114.245,6,0.996947,0\C,19,1.32832,9,126.598,6,-178.867,0\H,21,1.07607,19,121.1,9,179.942,0\H,21,1.07639,19,123.025,9,0.0325222,0\\\@

 Total job time:  37.80s(wall), 37.68s(cpu) 
 Tue Feb  8 14:33:41 2022

        *************************************************************
        *                                                           *
        *  Thank you very much for using Q-Chem.  Have a nice day.  *
        *                                                           *
        *************************************************************


