
Running Job 1 of 1 fragments/C155/conf-0/spe_input.inp
qchem fragments/C155/conf-0/spe_input.inp_320902.0 /gpfs/fs0/scratch/a/aspuru/rhickman/descriptor_computation/qchem320902/ 0
/scinet/niagara/software/commercial/qc52/exe/qcprog.exe_s fragments/C155/conf-0/spe_input.inp_320902.0 /gpfs/fs0/scratch/a/aspuru/rhickman/descriptor_computation/qchem320902/
                  Welcome to Q-Chem
     A Quantum Leap Into The Future Of Chemistry


 Q-Chem 5.2, Q-Chem, Inc., Pleasanton, CA (2019)

 License issued to: SRG Alan Aspuru-Guzik, University of Toronto

 Yihan Shao,  Zhengting Gan,  E. Epifanovsky,  A. T. B. Gilbert,  M. Wormit,  
 J. Kussmann,  A. W. Lange,  A. Behn,  Jia Deng,  Xintian Feng,  D. Ghosh,  
 M. Goldey,  P. R. Horn,  L. D. Jacobson,  I. Kaliman,  T. Kus,  A. Landau,  
 Jie Liu,  E. I. Proynov,  R. M. Richard,  R. P. Steele,  E. J. Sundstrom,  
 H. L. Woodcock III,  P. M. Zimmerman,  D. Zuev,  B. Albrecht,  E. Alguire,  
 S. A. Baeppler,  D. Barton,  Z. Benda,  Y. A. Bernard,  E. J. Berquist,  
 K. B. Bravaya,  H. Burton,  D. Casanova,  Chun-Min Chang,  Yunqing Chen,  
 A. Chien,  K. D. Closser,  M. P. Coons,  S. Coriani,  S. Dasgupta,  
 A. L. Dempwolff,  M. Diedenhofen,  Hainam Do,  R. G. Edgar,  Po-Tung Fang,  
 S. Faraji,  S. Fatehi,  Qingguo Feng,  K. D. Fenk,  J. Fosso-Tande,  
 J. Gayvert,  Qinghui Ge,  A. Ghysels,  G. Gidofalvi,  J. Gomes,  
 J. Gonthier,  A. Gunina,  D. Hait,  M. W. D. Hanson-Heine,  
 P. H. P. Harbach,  A. W. Hauser,  M. F. Herbst,  J. E. Herr,  
 E. G. Hohenstein,  Z. C. Holden,  Kerwin Hui,  B. C. Huynh,  T.-C. Jagau,  
 Hyunjun Ji,  B. Kaduk,  K. Khistyaev,  Jaehoon Kim,  P. Klunzinger,  K. Koh,  
 D. Kosenkov,  L. Koulias,  T. Kowalczyk,  C. M. Krauter,  A. Kunitsa,  
 Ka Un Lao,  A. Laurent,  K. V. Lawler,  Joonho Lee,  D. Lefrancois,  
 S. Lehtola,  D. S. Levine,  Yi-Pei Li,  You-Sheng Lin,  Fenglai Liu,  
 E. Livshits,  A. Luenser,  P. Manohar,  E. Mansoor,  S. F. Manzer,  
 Shan-Ping Mao,  Yuezhi Mao,  N. Mardirossian,  A. V. Marenich,  
 T. Markovich,  L. A. Martinez-Martinez,  S. A. Maurer,  N. J. Mayhall,  
 S. C. McKenzie,  J.-M. Mewes,  P. Morgante,  A. F. Morrison,  
 J. W. Mullinax,  K. Nanda,  T. S. Nguyen-Beck,  R. Olivares-Amaya,  
 J. A. Parkhill,  Zheng Pei,  T. M. Perrine,  F. Plasser,  P. Pokhilko,  
 S. Prager,  A. Prociuk,  E. Ramos,  D. R. Rehn,  F. Rob,  M. Scheurer,  
 M. Schneider,  N. Sergueev,  S. M. Sharada,  S. Sharma,  D. W. Small,  
 T. Stauch,  T. Stein,  Yu-Chuan Su,  A. J. W. Thom,  A. Tkatchenko,  
 T. Tsuchimochi,  N. M. Tubman,  L. Vogt,  M. L. Vidal,  O. Vydrov,  
 M. A. Watson,  J. Wenzel,  M. de Wergifosse,  T. A. Wesolowski,  A. White,  
 J. Witte,  A. Yamada,  Jun Yang,  K. Yao,  S. Yeganeh,  S. R. Yost,  
 Zhi-Qiang You,  A. Zech,  Igor Ying Zhang,  Xing Zhang,  Yan Zhao,  
 Ying Zhu,  B. R. Brooks,  G. K. L. Chan,  C. J. Cramer,  M. S. Gordon,  
 W. J. Hehre,  A. Klamt,  M. W. Schmidt,  C. D. Sherrill,  D. G. Truhlar,  
 A. Aspuru-Guzik,  R. Baer,  A. T. Bell,  N. A. Besley,  Jeng-Da Chai,  
 A. E. DePrince, III,  R. A. DiStasio Jr.,  A. Dreuw,  B. D. Dunietz,  
 T. R. Furlani,  Chao-Ping Hsu,  Yousung Jung,  Jing Kong,  D. S. Lambrecht,  
 WanZhen Liang,  C. Ochsenfeld,  V. A. Rassolov,  L. V. Slipchenko,  
 J. E. Subotnik,  T. Van Voorhis,  J. M. Herbert,  A. I. Krylov,  
 P. M. W. Gill,  M. Head-Gordon

 Contributors to earlier versions of Q-Chem not listed above: 
 R. D. Adamson,  B. Austin,  J. Baker,  G. J. O. Beran,  K. Brandhorst,  
 S. T. Brown,  E. F. C. Byrd,  A. K. Chakraborty,  C.-L. Cheng,  
 Siu Hung Chien,  D. M. Chipman,  D. L. Crittenden,  H. Dachsel,  
 R. J. Doerksen,  A. D. Dutoi,  L. Fusti-Molnar,  W. A. Goddard III,  
 A. Golubeva-Zadorozhnaya,  S. R. Gwaltney,  G. Hawkins,  A. Heyden,  
 S. Hirata,  G. Kedziora,  F. J. Keil,  C. Kelley,  Jihan Kim,  R. A. King,  
 R. Z. Khaliullin,  P. P. Korambath,  W. Kurlancheek,  A. M. Lee,  M. S. Lee,  
 S. V. Levchenko,  Ching Yeh Lin,  D. Liotard,  R. C. Lochan,  I. Lotan,  
 P. E. Maslen,  N. Nair,  D. P. O'Neill,  D. Neuhauser,  E. Neuscamman,  
 C. M. Oana,  R. Olson,  B. Peters,  R. Peverati,  P. A. Pieniazek,  
 Y. M. Rhee,  J. Ritchie,  M. A. Rohrdanz,  E. Rosta,  N. J. Russ,  
 H. F. Schaefer III,  N. E. Schultz,  N. Shenvi,  A. C. Simmonett,  A. Sodt,  
 D. Stuck,  K. S. Thanthiriwatte,  V. Vanovschi,  Tao Wang,  A. Warshel,  
 C. F. Williams,  Q. Wu,  X. Xu,  W. Zhang

 Please cite Q-Chem as follows:
 Y. Shao et al., Mol. Phys. 113, 184-215 (2015)
 DOI: 10.1080/00268976.2014.952696

 Q-Chem 5.2.1 for Intel X86 EM64T Linux

 Parts of Q-Chem use Armadillo 8.300.2 (Tropical Shenanigans).
 http://arma.sourceforge.net/

 Q-Chem begins on Tue Feb  8 14:27:13 2022  

Host: 
0

     Scratch files written to /gpfs/fs0/scratch/a/aspuru/rhickman/descriptor_computation/qchem320902//
 Jul1719 |scratch|qcdevops|jenkins|workspace|build_RNUM -1
Processing $rem in /scinet/niagara/software/commercial/qc52/config/preferences:
	 MEM_TOTAL  4000 
NAlpha2: 130
NElect   130
Mult     1

Checking the input file for inconsistencies... 	...done.

--------------------------------------------------------------
User input:
--------------------------------------------------------------
$molecule
0 1
C         0.78295985960000    3.65498192260000    0.54054202170000
C         1.28254213710000    2.57747837560000   -0.05075539510000
C         0.64999506650000    1.26228052100000   -0.02467244400000
C        -0.73809238470000    1.15815879020000   -0.03406074510000
C        -1.39338929390000   -0.06645108990000   -0.02926648600000
C        -2.87747894370000   -0.08563400830000    0.01538640590000
O        -3.55897166000000   -1.00785514380000    0.39084883560000
O        -3.40571224400000    1.07483619030000   -0.40973999920000
C        -4.82214507250000    1.15356381900000   -0.38161971780000
C        -0.64969623300000   -1.26136241830000   -0.02503535880000
C        -1.28172715400000   -2.57683531070000   -0.05159120310000
C        -0.78376403990000   -3.65286998390000    0.54366107150000
C         0.73833529950000   -1.15727875410000   -0.03375094290000
C         1.39366543370000    0.06730567250000   -0.02871978650000
C         2.87779819510000    0.08538190510000    0.01618469460000
O         3.56022717620000    1.00587236620000    0.39409985970000
O         3.40470851960000   -1.07467431230000   -0.41182741590000
C         4.82095521130000   -1.15598564180000   -0.38320616530000
H         1.28510080970000    4.60535754340000    0.49020520640000
H        -0.12524680500000    3.62559287960000    1.11971165860000
H         2.22815709240000    2.64130937790000   -0.56865449940000
H        -1.32926957210000    2.05991810390000   -0.05419888790000
H        -5.07811513600000    2.14897529980000   -0.73521161920000
H        -5.19135209130000    0.99817860150000    0.63439092060000
H        -5.25831935980000    0.39202673530000   -1.03162249930000
H        -2.22503821200000   -2.64208085710000   -0.57349764230000
H         0.12195714770000   -3.62145611520000    1.12662494510000
H        -1.28481045910000   -4.60379531540000    0.49297050820000
H         1.32937007670000   -2.05913777140000   -0.05351707900000
H         5.07497511050000   -2.15321932390000   -0.73311174730000
H         5.19036760640000   -0.99748977640000    0.63224159310000
H         5.25872638980000   -0.39785272240000   -1.03611942840000
$end

$rem
BASIS = 6-31G*
GUI = 2
METHOD = B3LYP
PRINT_ORBITALS false
MOLDEN_FORMAT false
--------------------------------------------------------------
 ----------------------------------------------------------------
             Standard Nuclear Orientation (Angstroms)
    I     Atom           X                Y                Z
 ----------------------------------------------------------------
    1      C      -0.7227743883    -3.6673663554     0.5417104341
    2      C      -1.2400088544    -2.5982299975    -0.0495973843
    3      C      -0.6291687668    -1.2728104884    -0.0235392568
    4      C       0.7570192495    -1.1458829187    -0.0329425843
    5      C       1.3920951573     0.0893345587    -0.0281720863
    6      C       2.8756693001     0.1329138383     0.0164660464
    7      O       3.5419122526     1.0662194088     0.3919087470
    8      O       3.4229051983    -1.0187215118    -0.4086490601
    9      C       4.8404411472    -1.0741520570    -0.3805414891
   10      C       0.6288583974     1.2718582082    -0.0239506427
   11      C       1.2391773820     2.5975434777    -0.0505313094
   12      C       0.7235973131     3.6652547921     0.5447105684
   13      C      -0.7572745061     1.1449693596    -0.0326512015
   14      C      -1.3923839593    -0.0902230730    -0.0275962840
   15      C      -2.8760185484    -0.1326952410     0.0173229409
   16      O      -3.5432189138    -1.0642749612     0.3952578197
   17      O      -3.4219329718     1.0185357011    -0.4107004750
   18      C      -4.8393247444     1.0765534715    -0.3820665525
   19      H      -1.2092238581    -4.6258694162     0.4913919964
   20      H       0.1848319014    -3.6230421361     1.1208707886
   21      H      -2.1844515725    -2.6776056322    -0.5674863527
   22      H       1.3629412007    -2.0378017481    -0.0530737114
   23      H       5.1127377331    -2.0652259559    -0.7341217747
   24      H       5.2070534290    -0.9127035379     0.6354633418
   25      H       5.2640306872    -0.3055565408    -1.0305593265
   26      H       2.1812833527     2.6782806807    -0.5724478820
   27      H      -0.1814794756     3.6189635446     1.1276837286
   28      H       1.2089424002     4.6242880468     0.4940016304
   29      H      -1.3630560857     2.0369896483    -0.0524243561
   30      H      -5.1097080887     2.0694712992    -0.7319837951
   31      H      -5.2060718818     0.9120204757     0.6333870592
   32      H      -5.2645793371     0.3113167256    -1.0349647922
 ----------------------------------------------------------------
 Molecular Point Group                 C1    NOp =  1
 Largest Abelian Subgroup              C1    NOp =  1
 Nuclear Repulsion Energy =        1270.28224873 hartrees
 There are       65 alpha and       65 beta electrons
 Requested basis set is 6-31G(d)
 There are 100 shells and 298 basis functions

 Total QAlloc Memory Limit   4000 MB
 Mega-Array Size       188 MB
 MEM_STATIC part       192 MB
 A cutoff of  1.0D-08 yielded   2713 shell pairs
 There are     27060 function pairs
 Smallest overlap matrix eigenvalue = 2.78E-04

 Scale SEOQF with 1.000000e-02/1.000000e-01/1.000000e+00

 Standard Electronic Orientation quadrupole field applied
 Nucleus-field energy     =     0.0000000147 hartrees
 Guess from superposition of atomic densities
 Warning:  Energy on first SCF cycle will be non-variational
 SAD guess density has 130.000000 electrons

 -----------------------------------------------------------------------
  General SCF calculation program by
  Eric Jon Sundstrom, Paul Horn, Yuezhi Mao, Dmitri Zuev, Alec White,
  David Stuck, Shaama M.S., Shane Yost, Joonho Lee, David Small,
  Daniel Levine, Susi Lehtola, Hugh Burton, Evgeny Epifanovsky,
  Bang C. Huynh
 -----------------------------------------------------------------------
 Exchange:     0.2000 Hartree-Fock + 0.0800 Slater + 0.7200 B88
 Correlation:  0.1900 VWN1RPA + 0.8100 LYP
 Using SG-1 standard quadrature grid
 A restricted SCF calculation will be
 performed using DIIS
 SCF converges when DIIS error is below 1.0e-05
 ---------------------------------------
  Cycle       Energy         DIIS error
 ---------------------------------------
    1    -846.8022516105      4.73e-02  
    2    -842.4769366481      5.67e-03  
    3    -842.0291783927      9.37e-03  
    4    -842.7439444341      2.20e-03  
    5    -842.7881843481      5.60e-04  
    6    -842.7903671843      2.21e-04  
    7    -842.7908079549      4.69e-05  
    8    -842.7908269427      1.72e-05  
    9    -842.7908299351      5.39e-06  Convergence criterion met
 ---------------------------------------
 SCF time:   CPU 62.61s  wall 63.00s 
 SCF   energy in the final basis set =     -842.7908299351
 Total energy in the final basis set =     -842.7908299351
 
 --------------------------------------------------------------
 
                    Orbital Energies (a.u.)
 --------------------------------------------------------------
 
 Alpha MOs
 -- Occupied --
-19.1967 -19.1966 -19.1389 -19.1389 -10.3190 -10.3189 -10.2425 -10.2425
-10.2129 -10.2129 -10.2111 -10.2110 -10.1999 -10.1999 -10.1885 -10.1884
-10.1799 -10.1798  -1.1141  -1.1141  -1.0222  -1.0221  -0.8849  -0.8181
 -0.7957  -0.7747  -0.7429  -0.7218  -0.7199  -0.6532  -0.6423  -0.5939
 -0.5825  -0.5678  -0.5547  -0.5277  -0.5215  -0.5003  -0.4899  -0.4865
 -0.4736  -0.4703  -0.4546  -0.4502  -0.4456  -0.4433  -0.4204  -0.4144
 -0.4124  -0.4020  -0.4019  -0.3745  -0.3678  -0.3657  -0.3594  -0.3588
 -0.3457  -0.3149  -0.3063  -0.3061  -0.2824  -0.2785  -0.2657  -0.2602
 -0.2234
 -- Virtual --
 -0.0685  -0.0352   0.0029   0.0339   0.0536   0.0828   0.1062   0.1087
  0.1218   0.1303   0.1341   0.1357   0.1402   0.1485   0.1536   0.1568
  0.1673   0.1696   0.1803   0.1883   0.2033   0.2035   0.2086   0.2474
  0.2666   0.2770   0.3018   0.3062   0.3103   0.3283   0.3386   0.3554
  0.3655   0.4026   0.4074   0.4093   0.4376   0.4759   0.4917   0.5040
  0.5134   0.5173   0.5258   0.5365   0.5368   0.5378   0.5439   0.5536
  0.5663   0.5706   0.5802   0.5887   0.5932   0.6004   0.6123   0.6164
  0.6221   0.6266   0.6505   0.6522   0.6729   0.6800   0.6890   0.6910
  0.6940   0.7130   0.7177   0.7318   0.7562   0.7631   0.7686   0.8111
  0.8210   0.8260   0.8373   0.8458   0.8497   0.8522   0.8578   0.8607
  0.8695   0.8789   0.8815   0.8986   0.9187   0.9239   0.9312   0.9380
  0.9454   0.9554   0.9681   0.9682   0.9848   0.9893   0.9940   1.0140
  1.0322   1.0412   1.0508   1.0734   1.0794   1.1003   1.1010   1.1281
  1.1368   1.1750   1.2010   1.2035   1.2343   1.2457   1.2553   1.2574
  1.2727   1.2902   1.2936   1.3294   1.3337   1.3474   1.3933   1.3939
  1.4049   1.4514   1.4584   1.4726   1.4859   1.5123   1.5262   1.5396
  1.5450   1.5477   1.5724   1.5994   1.6567   1.6590   1.6669   1.6701
  1.6928   1.7003   1.7109   1.7347   1.7414   1.7738   1.7968   1.8040
  1.8357   1.8553   1.8580   1.8700   1.8882   1.9088   1.9393   1.9398
  1.9558   1.9649   1.9919   1.9976   2.0156   2.0161   2.0335   2.0366
  2.0556   2.0635   2.0859   2.0937   2.1018   2.1152   2.1318   2.1418
  2.1422   2.1588   2.1683   2.2492   2.2496   2.2530   2.2834   2.2948
  2.3019   2.3044   2.3176   2.3196   2.3267   2.3363   2.3826   2.4214
  2.4350   2.4551   2.4625   2.4797   2.5093   2.5385   2.5724   2.5852
  2.6247   2.6539   2.6567   2.7003   2.7028   2.7258   2.7298   2.7439
  2.7569   2.8162   2.8313   2.8686   2.8939   2.9580   2.9820   2.9863
  3.0318   3.0625   3.1256   3.1839   3.1865   3.3241   3.4910   3.9792
  3.9819   4.0849   4.1019   4.1320   4.1367   4.1458   4.2287   4.2461
  4.2492   4.2772   4.3209   4.3711   4.4312   4.4413   4.4780   4.6077
  4.8207
 --------------------------------------------------------------
 
          Ground-State Mulliken Net Atomic Charges

     Atom                 Charge (a.u.)
  ----------------------------------------
      1 C                    -0.342610
      2 C                    -0.095405
      3 C                     0.117641
      4 C                    -0.249603
      5 C                     0.035465
      6 C                     0.570895
      7 O                    -0.482466
      8 O                    -0.451735
      9 C                    -0.217774
     10 C                     0.117255
     11 C                    -0.095222
     12 C                    -0.342550
     13 C                    -0.249327
     14 C                     0.035350
     15 C                     0.570640
     16 O                    -0.482415
     17 O                    -0.451634
     18 C                    -0.217791
     19 H                     0.147247
     20 H                     0.142961
     21 H                     0.156623
     22 H                     0.162224
     23 H                     0.166205
     24 H                     0.171257
     25 H                     0.169173
     26 H                     0.156568
     27 H                     0.142937
     28 H                     0.147210
     29 H                     0.162241
     30 H                     0.166219
     31 H                     0.171369
     32 H                     0.169053
  ----------------------------------------
  Sum of atomic charges =     0.000000

 -----------------------------------------------------------------
                    Cartesian Multipole Moments
 -----------------------------------------------------------------
    Charge (ESU x 10^10)
                 0.0000
    Dipole Moment (Debye)
         X       0.0019      Y      -0.0002      Z      -1.1965
       Tot       1.1965
    Quadrupole Moments (Debye-Ang)
        XX     -90.0069     XY     -14.6814     YY     -98.4794
        XZ       0.0109     YZ       0.0054     ZZ    -104.4976
    Octopole Moments (Debye-Ang^2)
       XXX       0.0990    XXY       0.0226    XYY      -0.0476
       YYY      -0.0273    XXZ     -32.5830    XYZ     -13.2157
       YYZ       3.1373    XZZ       0.0341    YZZ       0.0447
       ZZZ      -1.7074
    Hexadecapole Moments (Debye-Ang^3)
      XXXX   -3956.4168   XXXY    -363.9242   XXYY   -1103.2508
      XYYY       3.3733   YYYY   -2001.6325   XXXZ       0.3151
      XXYZ       0.0259   XYYZ      -0.0285   YYYZ      -0.0316
      XXZZ    -778.4643   XYZZ     -13.0915   YYZZ    -405.4142
      XZZZ      -0.0044   YZZZ       0.0087   ZZZZ    -181.9220
 -----------------------------------------------------------------
Archival summary:
1\1\nia2015.scinet.local\SP\ProcedureUnspecified\6-31G*\41414\rhickman\TueFeb814:28:162022TueFeb814:28:162022\0\\#,ProcedureUnspecified,6-31G*,\\0,1\O\C,1,1.34408\O,2,1.20658,1,122.443\C,1,1.41887,2,115.743,3,0.444473,0\H,4,1.08694,1,106.222,2,178.645,0\H,4,1.09211,1,110.381,2,-61.5004,0\H,4,1.09212,1,110.369,2,58.6029,0\C,2,1.48492,1,111.819,3,-179.469,0\C,8,1.38892,2,118.844,1,21.5285,0\H,9,1.07845,8,118.607,2,-2.9471,0\C,9,1.39196,8,122.439,2,177.579,0\C,11,1.40745,9,117.607,8,0.855941,0\C,12,1.38892,11,119.951,9,-0.365922,0\H,13,1.07846,12,118.599,11,178.974,0\C,13,1.39202,12,122.439,11,-0.498744,0\C,15,1.45964,13,119.961,12,179.075,0\H,16,1.08004,15,116.183,13,-147.252,0\C,16,1.32674,15,124.1,13,34.4312,0\H,18,1.07605,16,121.381,15,-179.773,0\H,18,1.07756,16,122.328,15,2.1228,0\C,11,1.45967,9,119.937,8,179.064,0\H,21,1.08004,11,116.194,9,-147.002,0\C,21,1.3267,11,124.073,9,34.6604,0\H,23,1.07605,21,121.389,11,-179.759,0\H,23,1.07757,21,122.314,11,2.14391,0\C,12,1.48489,11,121.135,9,-178.377,0\O,26,1.20661,12,125.713,11,19.9673,0\O,26,1.34404,12,111.848,11,-160.572,0\C,28,1.4189,26,115.72,12,-179.071,0\H,29,1.08692,28,106.228,26,179.017,0\H,29,1.0921,28,110.378,26,-61.1151,0\H,29,1.09212,28,110.366,26,58.9789,0\\\@

 Total job time:  63.34s(wall), 62.87s(cpu) 
 Tue Feb  8 14:28:16 2022

        *************************************************************
        *                                                           *
        *  Thank you very much for using Q-Chem.  Have a nice day.  *
        *                                                           *
        *************************************************************


