
Running Job 1 of 1 fragments/C119/conf-2/spe_input.inp
qchem fragments/C119/conf-2/spe_input.inp_154782.0 /gpfs/fs0/scratch/a/aspuru/rhickman/descriptor_computation/qchem154782/ 0
/scinet/niagara/software/commercial/qc52/exe/qcprog.exe_s fragments/C119/conf-2/spe_input.inp_154782.0 /gpfs/fs0/scratch/a/aspuru/rhickman/descriptor_computation/qchem154782/
                  Welcome to Q-Chem
     A Quantum Leap Into The Future Of Chemistry


 Q-Chem 5.2, Q-Chem, Inc., Pleasanton, CA (2019)

 License issued to: SRG Alan Aspuru-Guzik, University of Toronto

 Yihan Shao,  Zhengting Gan,  E. Epifanovsky,  A. T. B. Gilbert,  M. Wormit,  
 J. Kussmann,  A. W. Lange,  A. Behn,  Jia Deng,  Xintian Feng,  D. Ghosh,  
 M. Goldey,  P. R. Horn,  L. D. Jacobson,  I. Kaliman,  T. Kus,  A. Landau,  
 Jie Liu,  E. I. Proynov,  R. M. Richard,  R. P. Steele,  E. J. Sundstrom,  
 H. L. Woodcock III,  P. M. Zimmerman,  D. Zuev,  B. Albrecht,  E. Alguire,  
 S. A. Baeppler,  D. Barton,  Z. Benda,  Y. A. Bernard,  E. J. Berquist,  
 K. B. Bravaya,  H. Burton,  D. Casanova,  Chun-Min Chang,  Yunqing Chen,  
 A. Chien,  K. D. Closser,  M. P. Coons,  S. Coriani,  S. Dasgupta,  
 A. L. Dempwolff,  M. Diedenhofen,  Hainam Do,  R. G. Edgar,  Po-Tung Fang,  
 S. Faraji,  S. Fatehi,  Qingguo Feng,  K. D. Fenk,  J. Fosso-Tande,  
 J. Gayvert,  Qinghui Ge,  A. Ghysels,  G. Gidofalvi,  J. Gomes,  
 J. Gonthier,  A. Gunina,  D. Hait,  M. W. D. Hanson-Heine,  
 P. H. P. Harbach,  A. W. Hauser,  M. F. Herbst,  J. E. Herr,  
 E. G. Hohenstein,  Z. C. Holden,  Kerwin Hui,  B. C. Huynh,  T.-C. Jagau,  
 Hyunjun Ji,  B. Kaduk,  K. Khistyaev,  Jaehoon Kim,  P. Klunzinger,  K. Koh,  
 D. Kosenkov,  L. Koulias,  T. Kowalczyk,  C. M. Krauter,  A. Kunitsa,  
 Ka Un Lao,  A. Laurent,  K. V. Lawler,  Joonho Lee,  D. Lefrancois,  
 S. Lehtola,  D. S. Levine,  Yi-Pei Li,  You-Sheng Lin,  Fenglai Liu,  
 E. Livshits,  A. Luenser,  P. Manohar,  E. Mansoor,  S. F. Manzer,  
 Shan-Ping Mao,  Yuezhi Mao,  N. Mardirossian,  A. V. Marenich,  
 T. Markovich,  L. A. Martinez-Martinez,  S. A. Maurer,  N. J. Mayhall,  
 S. C. McKenzie,  J.-M. Mewes,  P. Morgante,  A. F. Morrison,  
 J. W. Mullinax,  K. Nanda,  T. S. Nguyen-Beck,  R. Olivares-Amaya,  
 J. A. Parkhill,  Zheng Pei,  T. M. Perrine,  F. Plasser,  P. Pokhilko,  
 S. Prager,  A. Prociuk,  E. Ramos,  D. R. Rehn,  F. Rob,  M. Scheurer,  
 M. Schneider,  N. Sergueev,  S. M. Sharada,  S. Sharma,  D. W. Small,  
 T. Stauch,  T. Stein,  Yu-Chuan Su,  A. J. W. Thom,  A. Tkatchenko,  
 T. Tsuchimochi,  N. M. Tubman,  L. Vogt,  M. L. Vidal,  O. Vydrov,  
 M. A. Watson,  J. Wenzel,  M. de Wergifosse,  T. A. Wesolowski,  A. White,  
 J. Witte,  A. Yamada,  Jun Yang,  K. Yao,  S. Yeganeh,  S. R. Yost,  
 Zhi-Qiang You,  A. Zech,  Igor Ying Zhang,  Xing Zhang,  Yan Zhao,  
 Ying Zhu,  B. R. Brooks,  G. K. L. Chan,  C. J. Cramer,  M. S. Gordon,  
 W. J. Hehre,  A. Klamt,  M. W. Schmidt,  C. D. Sherrill,  D. G. Truhlar,  
 A. Aspuru-Guzik,  R. Baer,  A. T. Bell,  N. A. Besley,  Jeng-Da Chai,  
 A. E. DePrince, III,  R. A. DiStasio Jr.,  A. Dreuw,  B. D. Dunietz,  
 T. R. Furlani,  Chao-Ping Hsu,  Yousung Jung,  Jing Kong,  D. S. Lambrecht,  
 WanZhen Liang,  C. Ochsenfeld,  V. A. Rassolov,  L. V. Slipchenko,  
 J. E. Subotnik,  T. Van Voorhis,  J. M. Herbert,  A. I. Krylov,  
 P. M. W. Gill,  M. Head-Gordon

 Contributors to earlier versions of Q-Chem not listed above: 
 R. D. Adamson,  B. Austin,  J. Baker,  G. J. O. Beran,  K. Brandhorst,  
 S. T. Brown,  E. F. C. Byrd,  A. K. Chakraborty,  C.-L. Cheng,  
 Siu Hung Chien,  D. M. Chipman,  D. L. Crittenden,  H. Dachsel,  
 R. J. Doerksen,  A. D. Dutoi,  L. Fusti-Molnar,  W. A. Goddard III,  
 A. Golubeva-Zadorozhnaya,  S. R. Gwaltney,  G. Hawkins,  A. Heyden,  
 S. Hirata,  G. Kedziora,  F. J. Keil,  C. Kelley,  Jihan Kim,  R. A. King,  
 R. Z. Khaliullin,  P. P. Korambath,  W. Kurlancheek,  A. M. Lee,  M. S. Lee,  
 S. V. Levchenko,  Ching Yeh Lin,  D. Liotard,  R. C. Lochan,  I. Lotan,  
 P. E. Maslen,  N. Nair,  D. P. O'Neill,  D. Neuhauser,  E. Neuscamman,  
 C. M. Oana,  R. Olson,  B. Peters,  R. Peverati,  P. A. Pieniazek,  
 Y. M. Rhee,  J. Ritchie,  M. A. Rohrdanz,  E. Rosta,  N. J. Russ,  
 H. F. Schaefer III,  N. E. Schultz,  N. Shenvi,  A. C. Simmonett,  A. Sodt,  
 D. Stuck,  K. S. Thanthiriwatte,  V. Vanovschi,  Tao Wang,  A. Warshel,  
 C. F. Williams,  Q. Wu,  X. Xu,  W. Zhang

 Please cite Q-Chem as follows:
 Y. Shao et al., Mol. Phys. 113, 184-215 (2015)
 DOI: 10.1080/00268976.2014.952696

 Q-Chem 5.2.1 for Intel X86 EM64T Linux

 Parts of Q-Chem use Armadillo 8.300.2 (Tropical Shenanigans).
 http://arma.sourceforge.net/

 Q-Chem begins on Mon Feb  7 17:52:15 2022  

Host: 
0

     Scratch files written to /gpfs/fs0/scratch/a/aspuru/rhickman/descriptor_computation/qchem154782//
 Jul1719 |scratch|qcdevops|jenkins|workspace|build_RNUM -1
Processing $rem in /scinet/niagara/software/commercial/qc52/config/preferences:
	 MEM_TOTAL  4000 
NAlpha2: 94
NElect   94
Mult     1

Checking the input file for inconsistencies... 	...done.

--------------------------------------------------------------
User input:
--------------------------------------------------------------
$molecule
0 1
C         3.55045682940000   -0.50148111830000   -0.07268623300000
C         2.31538749170000   -0.81009982240000   -0.44425003630000
C         1.12933601520000    0.01471206850000   -0.22402893760000
C         1.21718514750000    1.39453189770000   -0.08785797060000
C         0.08141360220000    2.16999923640000    0.12371681200000
N         0.18866005730000    3.53135841810000    0.33984519380000
C        -1.15620205600000    1.53781677790000    0.18587882800000
C        -1.28537452550000    0.16078976810000    0.02716413510000
C        -2.63046547840000   -0.41055410530000    0.08659597040000
C        -3.04117782860000   -1.51765134900000   -0.51712836620000
C        -0.12938258080000   -0.60319937720000   -0.17709149980000
O        -0.20306498580000   -1.98384107280000   -0.30971089960000
C        -0.07533945500000   -2.67154127570000    0.91418371600000
H         4.37810215260000   -1.16208762140000   -0.26769275320000
H         3.78548975370000    0.41098057720000    0.44959767390000
H         2.12067706390000   -1.75535214200000   -0.93444686090000
H         2.18044720680000    1.87704414850000   -0.15944842250000
H         1.02966105120000    3.96721745030000   -0.00280099910000
H        -0.64830490840000    4.07050878520000    0.18675722740000
H        -2.04444319940000    2.13377137700000    0.34461627510000
H        -3.33881684330000    0.17928690720000    0.65797389760000
H        -2.38056268970000   -2.11687142380000   -1.11789963270000
H        -4.06040423670000   -1.85658188140000   -0.42872527050000
H        -0.13211081880000   -3.73313825570000    0.67819484950000
H        -0.88587318480000   -2.40724708910000    1.60303949310000
H         0.88574373350000   -2.45372594430000    1.39500399880000
$end

$rem
BASIS = 6-31G*
GUI = 2
METHOD = B3LYP
PRINT_ORBITALS false
MOLDEN_FORMAT false
--------------------------------------------------------------
 ----------------------------------------------------------------
             Standard Nuclear Orientation (Angstroms)
    I     Atom           X                Y                Z
 ----------------------------------------------------------------
    1      C       2.3209273166     2.7255577420     0.0312795667
    2      C       1.1926048943     2.1419731366     0.4120931079
    3      C       0.8579187697     0.7320739216     0.2231500101
    4      C       1.8428410086    -0.2415892619     0.1132821257
    5      C       1.5127707262    -1.5810121504    -0.0686255972
    6      N       2.5001788755    -2.5298431952    -0.2590380342
    7      C       0.1687539672    -1.9350293440    -0.1278039080
    8      C      -0.8452230018    -0.9904412364     0.0051745851
    9      C      -2.2289134509    -1.4613251056    -0.0487212316
   10      C      -3.2748861158    -0.8951962114     0.5380251154
   11      C      -0.4923962567     0.3537155744     0.1797395034
   12      O      -1.4672836135     1.3373419949     0.2858630178
   13      C      -1.8252307858     1.9069196417    -0.9529341958
   14      H       2.4976865136     3.7737825734     0.2027618250
   15      H       3.1059142510     2.1894921478    -0.4757080980
   16      H       0.4159865493     2.7285975487     0.8858470213
   17      H       2.8824823041     0.0415926306     0.1823549301
   18      H       3.4164980007    -2.2870017521     0.0816223179
   19      H       2.2342416136    -3.4856426782    -0.0848137001
   20      H      -0.0964036791    -2.9745466171    -0.2635501845
   21      H      -2.3623495393    -2.3860565749    -0.5993693334
   22      H      -3.1834208635     0.0054260466     1.1184704878
   23      H      -4.2605971811    -1.3231058017     0.4556930899
   24      H      -2.5754409559     2.6662691657    -0.7373538585
   25      H      -2.2512324438     1.1542121464    -1.6262043047
   26      H      -0.9613502193     2.3732673330    -1.4413425863
 ----------------------------------------------------------------
 Molecular Point Group                 C1    NOp =  1
 Largest Abelian Subgroup              C1    NOp =  1
 Nuclear Repulsion Energy =         767.26319785 hartrees
 There are       47 alpha and       47 beta electrons
 Requested basis set is 6-31G(d)
 There are 78 shells and 221 basis functions

 Total QAlloc Memory Limit   4000 MB
 Mega-Array Size       188 MB
 MEM_STATIC part       192 MB
 A cutoff of  1.0D-08 yielded   2147 shell pairs
 There are     18902 function pairs
 Smallest overlap matrix eigenvalue = 2.93E-04

 Scale SEOQF with 1.000000e-01/1.000000e-01/1.000000e-01

 Standard Electronic Orientation quadrupole field applied
 Nucleus-field energy     =     0.0000000314 hartrees
 Guess from superposition of atomic densities
 Warning:  Energy on first SCF cycle will be non-variational
 SAD guess density has 94.000000 electrons

 -----------------------------------------------------------------------
  General SCF calculation program by
  Eric Jon Sundstrom, Paul Horn, Yuezhi Mao, Dmitri Zuev, Alec White,
  David Stuck, Shaama M.S., Shane Yost, Joonho Lee, David Small,
  Daniel Levine, Susi Lehtola, Hugh Burton, Evgeny Epifanovsky,
  Bang C. Huynh
 -----------------------------------------------------------------------
 Exchange:     0.2000 Hartree-Fock + 0.0800 Slater + 0.7200 B88
 Correlation:  0.1900 VWN1RPA + 0.8100 LYP
 Using SG-1 standard quadrature grid
 A restricted SCF calculation will be
 performed using DIIS
 SCF converges when DIIS error is below 1.0e-05
 ---------------------------------------
  Cycle       Energy         DIIS error
 ---------------------------------------
    1    -559.8680161252      5.49e-02  
    2    -556.7056180681      5.71e-03  
    3    -556.7150494125      5.76e-03  
    4    -556.9059875615      1.00e-03  
    5    -556.9110311167      4.11e-04  
    6    -556.9120608151      1.37e-04  
    7    -556.9121646412      3.46e-05  
    8    -556.9121710645      8.73e-06  Convergence criterion met
 ---------------------------------------
 SCF time:   CPU 33.53s  wall 33.00s 
 SCF   energy in the final basis set =     -556.9121710645
 Total energy in the final basis set =     -556.9121710645
 
 --------------------------------------------------------------
 
                    Orbital Energies (a.u.)
 --------------------------------------------------------------
 
 Alpha MOs
 -- Occupied --
-19.1533 -14.3384 -10.2236 -10.2217 -10.2212 -10.1891 -10.1876 -10.1821
-10.1817 -10.1768 -10.1754 -10.1738 -10.1685  -1.0429  -0.9208  -0.8440
 -0.7987  -0.7598  -0.7263  -0.7163  -0.6725  -0.6311  -0.6040  -0.5698
 -0.5417  -0.5232  -0.5097  -0.4918  -0.4657  -0.4580  -0.4443  -0.4427
 -0.4306  -0.4198  -0.4051  -0.3916  -0.3808  -0.3663  -0.3590  -0.3392
 -0.3293  -0.3138  -0.3009  -0.2604  -0.2486  -0.2156  -0.1917
 -- Virtual --
 -0.0263  -0.0046   0.0553   0.0800   0.0816   0.1123   0.1193   0.1244
  0.1354   0.1448   0.1527   0.1656   0.1695   0.1814   0.1834   0.2021
  0.2086   0.2161   0.2220   0.2635   0.2903   0.3189   0.3260   0.3314
  0.3581   0.3728   0.3882   0.3974   0.4279   0.4853   0.5062   0.5171
  0.5185   0.5294   0.5365   0.5473   0.5516   0.5761   0.5823   0.5889
  0.5979   0.6133   0.6200   0.6338   0.6404   0.6489   0.6560   0.6797
  0.6910   0.6962   0.7037   0.7087   0.7341   0.7524   0.7670   0.7969
  0.8171   0.8404   0.8422   0.8526   0.8652   0.8704   0.8789   0.8855
  0.8946   0.8955   0.9067   0.9199   0.9508   0.9597   0.9753   0.9864
  0.9960   1.0003   1.0215   1.0279   1.0403   1.0664   1.0849   1.1193
  1.1329   1.1465   1.1903   1.2034   1.2260   1.2377   1.2473   1.2603
  1.2698   1.3157   1.3511   1.3617   1.3786   1.4277   1.4718   1.4802
  1.4977   1.5099   1.5264   1.5402   1.5732   1.5894   1.6025   1.6836
  1.6916   1.7188   1.7750   1.7841   1.7960   1.8249   1.8544   1.8850
  1.8990   1.9359   1.9468   1.9523   1.9708   1.9986   2.0033   2.0172
  2.0351   2.0866   2.0935   2.0956   2.1372   2.1554   2.1723   2.1910
  2.2148   2.2196   2.2499   2.2682   2.2776   2.3029   2.3134   2.3262
  2.3903   2.4146   2.4373   2.4539   2.4823   2.4887   2.4911   2.5308
  2.5778   2.6353   2.6449   2.6582   2.7173   2.7457   2.7945   2.8049
  2.8101   2.8740   2.9449   2.9499   2.9892   3.0649   3.1236   3.2910
  3.4818   3.8522   4.0912   4.1193   4.1232   4.1459   4.1574   4.2412
  4.2643   4.2836   4.4215   4.4932   4.5159   4.8663
 --------------------------------------------------------------
 
          Ground-State Mulliken Net Atomic Charges

     Atom                 Charge (a.u.)
  ----------------------------------------
      1 C                    -0.348407
      2 C                    -0.120645
      3 C                     0.150337
      4 C                    -0.264692
      5 C                     0.360474
      6 N                    -0.807173
      7 C                    -0.273709
      8 C                     0.170897
      9 C                    -0.139536
     10 C                    -0.339400
     11 C                     0.170064
     12 O                    -0.526184
     13 C                    -0.206434
     14 H                     0.141013
     15 H                     0.138961
     16 H                     0.148985
     17 H                     0.114542
     18 H                     0.322243
     19 H                     0.321691
     20 H                     0.113540
     21 H                     0.125305
     22 H                     0.169685
     23 H                     0.133247
     24 H                     0.153155
     25 H                     0.146764
     26 H                     0.145276
  ----------------------------------------
  Sum of atomic charges =     0.000000

 -----------------------------------------------------------------
                    Cartesian Multipole Moments
 -----------------------------------------------------------------
    Charge (ESU x 10^10)
                 0.0000
    Dipole Moment (Debye)
         X       1.2092      Y      -1.2661      Z      -0.3323
       Tot       1.7820
    Quadrupole Moments (Debye-Ang)
        XX     -67.6514     XY      -4.2207     YY     -66.0340
        XZ       3.8154     YZ      -2.4299     ZZ     -80.5957
    Octopole Moments (Debye-Ang^2)
       XXX      19.6224    XXY     -11.8686    XYY      12.2834
       YYY     -22.0579    XXZ       3.4778    XYZ      -6.5780
       YYZ       1.2128    XZZ      -6.8549    YZZ       5.4888
       ZZZ      -0.1670
    Hexadecapole Moments (Debye-Ang^3)
      XXXX   -1566.8143   XXXY     -72.3996   XXYY    -466.0826
      XYYY     -81.2175   YYYY   -1282.0782   XXXZ       9.5751
      XXYZ     -25.2321   XYYZ      29.2118   YYYZ       0.9173
      XXZZ    -337.6533   XYZZ     -10.0630   YYZZ    -290.2864
      XZZZ       2.4395   YZZZ      -2.1212   ZZZZ    -169.3080
 -----------------------------------------------------------------
Archival summary:
1\1\nia1977.scinet.local\SP\ProcedureUnspecified\6-31G*\111113\rhickman\MonFeb717:52:482022MonFeb717:52:482022\0\\#,ProcedureUnspecified,6-31G*,\\0,1\O\C,1,1.38895\C,2,1.40061,1,120.82\C,3,1.39215,2,118.658,1,178.491,0\H,4,1.08136,3,119.055,2,-179.959,0\C,4,1.39112,3,121.8,2,1.1252,0\N,6,1.38257,4,120.63,3,-177.299,0\H,7,1.00729,6,116.029,4,-22.8026,0\H,7,1.0073,6,115.954,4,-161.021,0\C,6,1.39143,4,118.667,3,-0.753764,0\H,10,1.07973,6,119.291,4,178.67,0\C,10,1.3893,6,121.118,4,-0.551411,0\C,1,1.40967,2,113.405,3,-90.7821,0\H,13,1.08899,1,106.422,2,-179.078,0\H,13,1.09606,1,111.163,2,61.8417,0\H,13,1.0965,1,111.298,2,-59.8,0\C,12,1.46135,10,121.602,6,-179.895,0\H,17,1.08245,12,114.528,10,-155.577,0\C,17,1.32616,12,125.612,10,25.9491,0\H,19,1.07677,17,121.489,12,179.866,0\H,19,1.07731,17,122.42,12,0.674794,0\C,3,1.46261,2,123.496,1,-1.36798,0\H,22,1.0845,3,114.181,2,154.479,0\C,22,1.32621,3,126.328,2,-28.0251,0\H,24,1.07536,22,121.954,3,0.759735,0\H,24,1.07773,22,121.202,3,-179.037,0\\\@

 Total job time:  33.83s(wall), 33.72s(cpu) 
 Mon Feb  7 17:52:48 2022

        *************************************************************
        *                                                           *
        *  Thank you very much for using Q-Chem.  Have a nice day.  *
        *                                                           *
        *************************************************************


