
Running Job 1 of 1 fragments/C159/conf-4/spe_input.inp
qchem fragments/C159/conf-4/spe_input.inp_273268.0 /gpfs/fs0/scratch/a/aspuru/rhickman/descriptor_computation/qchem273268/ 0
/scinet/niagara/software/commercial/qc52/exe/qcprog.exe_s fragments/C159/conf-4/spe_input.inp_273268.0 /gpfs/fs0/scratch/a/aspuru/rhickman/descriptor_computation/qchem273268/
                  Welcome to Q-Chem
     A Quantum Leap Into The Future Of Chemistry


 Q-Chem 5.2, Q-Chem, Inc., Pleasanton, CA (2019)

 License issued to: SRG Alan Aspuru-Guzik, University of Toronto

 Yihan Shao,  Zhengting Gan,  E. Epifanovsky,  A. T. B. Gilbert,  M. Wormit,  
 J. Kussmann,  A. W. Lange,  A. Behn,  Jia Deng,  Xintian Feng,  D. Ghosh,  
 M. Goldey,  P. R. Horn,  L. D. Jacobson,  I. Kaliman,  T. Kus,  A. Landau,  
 Jie Liu,  E. I. Proynov,  R. M. Richard,  R. P. Steele,  E. J. Sundstrom,  
 H. L. Woodcock III,  P. M. Zimmerman,  D. Zuev,  B. Albrecht,  E. Alguire,  
 S. A. Baeppler,  D. Barton,  Z. Benda,  Y. A. Bernard,  E. J. Berquist,  
 K. B. Bravaya,  H. Burton,  D. Casanova,  Chun-Min Chang,  Yunqing Chen,  
 A. Chien,  K. D. Closser,  M. P. Coons,  S. Coriani,  S. Dasgupta,  
 A. L. Dempwolff,  M. Diedenhofen,  Hainam Do,  R. G. Edgar,  Po-Tung Fang,  
 S. Faraji,  S. Fatehi,  Qingguo Feng,  K. D. Fenk,  J. Fosso-Tande,  
 J. Gayvert,  Qinghui Ge,  A. Ghysels,  G. Gidofalvi,  J. Gomes,  
 J. Gonthier,  A. Gunina,  D. Hait,  M. W. D. Hanson-Heine,  
 P. H. P. Harbach,  A. W. Hauser,  M. F. Herbst,  J. E. Herr,  
 E. G. Hohenstein,  Z. C. Holden,  Kerwin Hui,  B. C. Huynh,  T.-C. Jagau,  
 Hyunjun Ji,  B. Kaduk,  K. Khistyaev,  Jaehoon Kim,  P. Klunzinger,  K. Koh,  
 D. Kosenkov,  L. Koulias,  T. Kowalczyk,  C. M. Krauter,  A. Kunitsa,  
 Ka Un Lao,  A. Laurent,  K. V. Lawler,  Joonho Lee,  D. Lefrancois,  
 S. Lehtola,  D. S. Levine,  Yi-Pei Li,  You-Sheng Lin,  Fenglai Liu,  
 E. Livshits,  A. Luenser,  P. Manohar,  E. Mansoor,  S. F. Manzer,  
 Shan-Ping Mao,  Yuezhi Mao,  N. Mardirossian,  A. V. Marenich,  
 T. Markovich,  L. A. Martinez-Martinez,  S. A. Maurer,  N. J. Mayhall,  
 S. C. McKenzie,  J.-M. Mewes,  P. Morgante,  A. F. Morrison,  
 J. W. Mullinax,  K. Nanda,  T. S. Nguyen-Beck,  R. Olivares-Amaya,  
 J. A. Parkhill,  Zheng Pei,  T. M. Perrine,  F. Plasser,  P. Pokhilko,  
 S. Prager,  A. Prociuk,  E. Ramos,  D. R. Rehn,  F. Rob,  M. Scheurer,  
 M. Schneider,  N. Sergueev,  S. M. Sharada,  S. Sharma,  D. W. Small,  
 T. Stauch,  T. Stein,  Yu-Chuan Su,  A. J. W. Thom,  A. Tkatchenko,  
 T. Tsuchimochi,  N. M. Tubman,  L. Vogt,  M. L. Vidal,  O. Vydrov,  
 M. A. Watson,  J. Wenzel,  M. de Wergifosse,  T. A. Wesolowski,  A. White,  
 J. Witte,  A. Yamada,  Jun Yang,  K. Yao,  S. Yeganeh,  S. R. Yost,  
 Zhi-Qiang You,  A. Zech,  Igor Ying Zhang,  Xing Zhang,  Yan Zhao,  
 Ying Zhu,  B. R. Brooks,  G. K. L. Chan,  C. J. Cramer,  M. S. Gordon,  
 W. J. Hehre,  A. Klamt,  M. W. Schmidt,  C. D. Sherrill,  D. G. Truhlar,  
 A. Aspuru-Guzik,  R. Baer,  A. T. Bell,  N. A. Besley,  Jeng-Da Chai,  
 A. E. DePrince, III,  R. A. DiStasio Jr.,  A. Dreuw,  B. D. Dunietz,  
 T. R. Furlani,  Chao-Ping Hsu,  Yousung Jung,  Jing Kong,  D. S. Lambrecht,  
 WanZhen Liang,  C. Ochsenfeld,  V. A. Rassolov,  L. V. Slipchenko,  
 J. E. Subotnik,  T. Van Voorhis,  J. M. Herbert,  A. I. Krylov,  
 P. M. W. Gill,  M. Head-Gordon

 Contributors to earlier versions of Q-Chem not listed above: 
 R. D. Adamson,  B. Austin,  J. Baker,  G. J. O. Beran,  K. Brandhorst,  
 S. T. Brown,  E. F. C. Byrd,  A. K. Chakraborty,  C.-L. Cheng,  
 Siu Hung Chien,  D. M. Chipman,  D. L. Crittenden,  H. Dachsel,  
 R. J. Doerksen,  A. D. Dutoi,  L. Fusti-Molnar,  W. A. Goddard III,  
 A. Golubeva-Zadorozhnaya,  S. R. Gwaltney,  G. Hawkins,  A. Heyden,  
 S. Hirata,  G. Kedziora,  F. J. Keil,  C. Kelley,  Jihan Kim,  R. A. King,  
 R. Z. Khaliullin,  P. P. Korambath,  W. Kurlancheek,  A. M. Lee,  M. S. Lee,  
 S. V. Levchenko,  Ching Yeh Lin,  D. Liotard,  R. C. Lochan,  I. Lotan,  
 P. E. Maslen,  N. Nair,  D. P. O'Neill,  D. Neuhauser,  E. Neuscamman,  
 C. M. Oana,  R. Olson,  B. Peters,  R. Peverati,  P. A. Pieniazek,  
 Y. M. Rhee,  J. Ritchie,  M. A. Rohrdanz,  E. Rosta,  N. J. Russ,  
 H. F. Schaefer III,  N. E. Schultz,  N. Shenvi,  A. C. Simmonett,  A. Sodt,  
 D. Stuck,  K. S. Thanthiriwatte,  V. Vanovschi,  Tao Wang,  A. Warshel,  
 C. F. Williams,  Q. Wu,  X. Xu,  W. Zhang

 Please cite Q-Chem as follows:
 Y. Shao et al., Mol. Phys. 113, 184-215 (2015)
 DOI: 10.1080/00268976.2014.952696

 Q-Chem 5.2.1 for Intel X86 EM64T Linux

 Parts of Q-Chem use Armadillo 8.300.2 (Tropical Shenanigans).
 http://arma.sourceforge.net/

 Q-Chem begins on Mon Feb  7 09:57:57 2022  

Host: 
0

     Scratch files written to /gpfs/fs0/scratch/a/aspuru/rhickman/descriptor_computation/qchem273268//
 Jul1719 |scratch|qcdevops|jenkins|workspace|build_RNUM -1
Processing $rem in /scinet/niagara/software/commercial/qc52/config/preferences:
	 MEM_TOTAL  4000 
NAlpha2: 100
NElect   100
Mult     1

Checking the input file for inconsistencies... 	...done.

--------------------------------------------------------------
User input:
--------------------------------------------------------------
$molecule
0 1
C        -4.64732860720000   -0.44118348230000    0.40641986300000
C        -3.42553648330000   -0.96065338650000    0.42768539910000
C        -2.19097177950000   -0.25293433680000    0.12596196230000
C        -2.14403608310000    1.01349164500000   -0.46896001930000
N        -1.03424598650000    1.68224119330000   -0.68185635440000
C         0.14044811430000    1.14812111950000   -0.35709632420000
C         1.29454773150000    2.02789811670000   -0.50580948980000
C         2.36285991570000    2.01009115480000    0.27960069410000
C         0.22146002070000   -0.16880407260000    0.12922599950000
C         1.50864265170000   -0.88350380100000    0.33551608140000
O         1.80077163630000   -1.49665368010000    1.33095853570000
O         2.27809390070000   -0.81630618220000   -0.75930017660000
C         3.54327581720000   -1.45630401600000   -0.68810957740000
C        -0.95805140480000   -0.84842929250000    0.39446709610000
H        -5.51094516870000   -1.03547199610000    0.65015915130000
H        -4.83571056200000    0.58879899130000    0.15686371400000
H        -3.29304597540000   -1.99835526960000    0.70868269500000
H        -3.04751902170000    1.51340823130000   -0.79065671160000
H         1.18492125780000    2.77846784300000   -1.27592008440000
H         2.46321323000000    1.31466556400000    1.09745689780000
H         3.17211144980000    2.70742052290000    0.14544300230000
H         3.85505894010000   -1.64155920300000   -1.71299353450000
H         3.46403292960000   -2.39218620790000   -0.13111168440000
H         4.26142072720000   -0.80271849340000   -0.18793964290000
H        -0.90939566880000   -1.84923669140000    0.80095330800000
$end

$rem
BASIS = 6-31G*
GUI = 2
METHOD = B3LYP
PRINT_ORBITALS false
MOLDEN_FORMAT false
--------------------------------------------------------------
 ----------------------------------------------------------------
             Standard Nuclear Orientation (Angstroms)
    I     Atom           X                Y                Z
 ----------------------------------------------------------------
    1      C       4.6553396597     0.5675816142     0.0369523240
    2      C       3.4246872438     1.0653868415     0.0093518642
    3      C       2.1926416473     0.2946740688    -0.0548257315
    4      C       2.1437613897    -1.0740184198    -0.3451040173
    5      N       1.0400518086    -1.7853335629    -0.3387169803
    6      C      -0.1279743368    -1.2040138916    -0.0771029053
    7      C      -1.2676775550    -2.1067901286     0.0418119267
    8      C      -2.2933791597    -1.9228606294     0.8619237027
    9      C      -0.2137017641     0.1879065180     0.1033761097
   10      C      -1.5044231001     0.9170739438     0.2153748733
   11      O      -1.7579283936     1.7366397256     1.0616873411
   12      O      -2.3285713513     0.5954769850    -0.7908797861
   13      C      -3.6027013422     1.2215193474    -0.7946662689
   14      C       0.9621131485     0.9224099540     0.1415136977
   15      H       5.5166203967     1.2107528502     0.0912431769
   16      H       4.8540753412    -0.4901014861     0.0159638353
   17      H       3.2832244869     2.1383025882     0.0560262908
   18      H       3.0403946818    -1.6242061689    -0.5961596998
   19      H      -1.1813643206    -3.0110886011    -0.5440528221
   20      H      -2.3666533489    -1.0613562714     1.5061421783
   21      H      -3.0922491699    -2.6409901360     0.9343895420
   22      H      -3.9720889179     1.1664901621    -1.8156657465
   23      H      -3.5159297051     2.2600308314    -0.4685280378
   24      H      -4.2783003054     0.6906459049    -0.1202661359
   25      H       0.9117911737     1.9887062724     0.3138323881
 ----------------------------------------------------------------
 Molecular Point Group                 C1    NOp =  1
 Largest Abelian Subgroup              C1    NOp =  1
 Nuclear Repulsion Energy =         842.34560204 hartrees
 There are       50 alpha and       50 beta electrons
 Requested basis set is 6-31G(d)
 There are 78 shells and 232 basis functions

 Total QAlloc Memory Limit   4000 MB
 Mega-Array Size       188 MB
 MEM_STATIC part       192 MB
 A cutoff of  1.0D-08 yielded   1962 shell pairs
 There are     19370 function pairs
 Smallest overlap matrix eigenvalue = 5.70E-04

 Scale SEOQF with 1.000000e-02/1.000000e-01/1.000000e-01

 Standard Electronic Orientation quadrupole field applied
 Nucleus-field energy     =     0.0000000116 hartrees
 Guess from superposition of atomic densities
 Warning:  Energy on first SCF cycle will be non-variational
 SAD guess density has 100.000000 electrons

 -----------------------------------------------------------------------
  General SCF calculation program by
  Eric Jon Sundstrom, Paul Horn, Yuezhi Mao, Dmitri Zuev, Alec White,
  David Stuck, Shaama M.S., Shane Yost, Joonho Lee, David Small,
  Daniel Levine, Susi Lehtola, Hugh Burton, Evgeny Epifanovsky,
  Bang C. Huynh
 -----------------------------------------------------------------------
 Exchange:     0.2000 Hartree-Fock + 0.0800 Slater + 0.7200 B88
 Correlation:  0.1900 VWN1RPA + 0.8100 LYP
 Using SG-1 standard quadrature grid
 A restricted SCF calculation will be
 performed using DIIS
 SCF converges when DIIS error is below 1.0e-05
 ---------------------------------------
  Cycle       Energy         DIIS error
 ---------------------------------------
    1    -634.1370604012      5.38e-02  
    2    -630.7272298865      5.98e-03  
    3    -630.5063563442      9.07e-03  
    4    -630.9144768980      2.44e-03  
    5    -630.9479699335      5.54e-04  
    6    -630.9492457038      2.51e-04  
    7    -630.9495747038      5.89e-05  
    8    -630.9495916712      3.02e-05  
    9    -630.9495979267      5.72e-06  Convergence criterion met
 ---------------------------------------
 SCF time:   CPU 40.49s  wall 40.00s 
 SCF   energy in the final basis set =     -630.9495979267
 Total energy in the final basis set =     -630.9495979267
 
 --------------------------------------------------------------
 
                    Orbital Energies (a.u.)
 --------------------------------------------------------------
 
 Alpha MOs
 -- Occupied --
-19.1941 -19.1394 -14.3322 -10.3197 -10.2403 -10.2370 -10.2275 -10.2137
-10.2125 -10.2100 -10.2017 -10.1927 -10.1908 -10.1884  -1.1122  -1.0227
 -0.9590  -0.8354  -0.8196  -0.7814  -0.7450  -0.7276  -0.6685  -0.6390
 -0.6007  -0.5861  -0.5622  -0.5281  -0.5140  -0.5002  -0.4831  -0.4731
 -0.4687  -0.4557  -0.4298  -0.4246  -0.4183  -0.4147  -0.3987  -0.3879
 -0.3744  -0.3600  -0.3547  -0.3321  -0.3068  -0.2993  -0.2790  -0.2742
 -0.2543  -0.2279
 -- Virtual --
 -0.0597  -0.0343   0.0075   0.0221   0.0730   0.1038   0.1101   0.1125
  0.1289   0.1354   0.1440   0.1520   0.1594   0.1706   0.1757   0.1919
  0.1997   0.2076   0.2570   0.2675   0.2754   0.3005   0.3061   0.3364
  0.3488   0.3623   0.3757   0.4078   0.4398   0.4454   0.4558   0.4942
  0.5035   0.5109   0.5226   0.5306   0.5444   0.5516   0.5636   0.5691
  0.5768   0.5826   0.5985   0.6087   0.6207   0.6287   0.6453   0.6583
  0.6595   0.6738   0.6809   0.6864   0.6982   0.7106   0.7411   0.7755
  0.7886   0.8124   0.8216   0.8302   0.8318   0.8505   0.8647   0.8667
  0.8686   0.8752   0.8832   0.8851   0.8996   0.9203   0.9362   0.9599
  0.9654   0.9777   0.9916   1.0055   1.0203   1.0358   1.0680   1.0771
  1.0905   1.1098   1.1266   1.1462   1.1584   1.1685   1.1923   1.2289
  1.2373   1.2744   1.2788   1.3257   1.3410   1.3703   1.4001   1.4193
  1.4468   1.4697   1.4734   1.4998   1.5130   1.5166   1.5400   1.5877
  1.6167   1.6431   1.6620   1.6689   1.6828   1.7002   1.7284   1.7672
  1.8020   1.8157   1.8219   1.8554   1.8588   1.8905   1.8964   1.9418
  1.9589   1.9842   1.9920   2.0103   2.0294   2.0368   2.0549   2.0974
  2.1015   2.1279   2.1503   2.1530   2.1735   2.1921   2.2175   2.2266
  2.2691   2.2775   2.2893   2.3187   2.3516   2.3619   2.3806   2.3863
  2.4239   2.4401   2.4903   2.5143   2.5641   2.5719   2.6093   2.6331
  2.6413   2.6794   2.7001   2.7265   2.7612   2.7951   2.8578   2.8810
  2.9124   2.9489   2.9793   3.0533   3.0968   3.1370   3.2874   3.4659
  3.9982   4.0748   4.0904   4.1248   4.1556   4.1811   4.2159   4.2250
  4.2589   4.2831   4.3729   4.4700   4.5369   4.7424
 --------------------------------------------------------------
 
          Ground-State Mulliken Net Atomic Charges

     Atom                 Charge (a.u.)
  ----------------------------------------
      1 C                    -0.346922
      2 C                    -0.115539
      3 C                     0.146572
      4 C                    -0.002288
      5 N                    -0.479597
      6 C                     0.255745
      7 C                    -0.075343
      8 C                    -0.350021
      9 C                     0.068262
     10 C                     0.500037
     11 O                    -0.479084
     12 O                    -0.421730
     13 C                    -0.225878
     14 C                    -0.188729
     15 H                     0.151168
     16 H                     0.150634
     17 H                     0.135700
     18 H                     0.143698
     19 H                     0.150556
     20 H                     0.163217
     21 H                     0.150891
     22 H                     0.167677
     23 H                     0.179055
     24 H                     0.162195
     25 H                     0.159725
  ----------------------------------------
  Sum of atomic charges =     0.000000

 -----------------------------------------------------------------
                    Cartesian Multipole Moments
 -----------------------------------------------------------------
    Charge (ESU x 10^10)
                 0.0000
    Dipole Moment (Debye)
         X      -0.1985      Y       0.5785      Z      -1.1167
       Tot       1.2732
    Quadrupole Moments (Debye-Ang)
        XX     -64.2271     XY       3.8409     YY     -81.4579
        XZ       2.7869     YZ      -3.7962     ZZ     -84.5069
    Octopole Moments (Debye-Ang^2)
       XXX     -23.3775    XXY       5.9469    XYY      -7.1581
       YYY      14.9871    XXZ      -8.7832    XYZ      11.5830
       YYZ      -8.2123    XZZ     -12.7371    YZZ      -0.7674
       ZZZ      -4.1796
    Hexadecapole Moments (Debye-Ang^3)
      XXXX   -2605.7714   XXXY     -39.5337   XXYY    -597.1954
      XYYY      28.3601   YYYY    -922.5513   XXXZ      31.5866
      XXYZ     -23.5771   XYYZ      19.0664   YYYZ      -2.0584
      XXZZ    -553.1628   XYZZ      -8.9541   YYZZ    -203.1799
      XZZZ      12.6858   YZZZ       0.0695   ZZZZ    -220.1287
 -----------------------------------------------------------------
Archival summary:
1\1\nia0231.scinet.local\SP\ProcedureUnspecified\6-31G*\211111\rhickman\MonFeb709:58:382022MonFeb709:58:382022\0\\#,ProcedureUnspecified,6-31G*,\\0,1\O\C,1,1.33985\O,2,1.20507,1,124.144\C,1,1.41963,2,116.629,3,-3.54182,0\H,4,1.08716,1,106.567,2,158.769,0\H,4,1.09197,1,110.321,2,38.3826,0\H,4,1.09228,1,109.825,2,-81.8926,0\C,2,1.48667,1,111.084,3,-176.804,0\C,8,1.3869,2,118.309,1,127.376,0\H,9,1.0813,8,119.155,2,3.86204,0\C,9,1.39528,8,120.368,2,-175.436,0\C,11,1.39999,9,115.991,8,2.79055,0\H,12,1.08152,11,121.1,9,174.666,0\N,12,1.31308,11,123.914,9,-5.28924,0\C,14,1.33066,12,120.14,11,1.68764,0\C,11,1.45467,9,120.158,8,-178.923,0\H,16,1.08321,11,114.587,9,-9.30884,0\C,16,1.32781,11,125.964,9,169.494,0\H,18,1.0763,16,121.244,11,-179.601,0\H,18,1.0764,16,122.623,11,-0.170319,0\C,15,1.45879,14,115.56,12,-173.859,0\H,21,1.08095,15,114.277,14,-28.9618,0\C,21,1.32608,15,124.672,14,146.083,0\H,23,1.07664,21,121.536,15,-177.763,0\H,23,1.07823,21,122.201,15,0.964425,0\\\@

 Total job time:  41.00s(wall), 40.68s(cpu) 
 Mon Feb  7 09:58:38 2022

        *************************************************************
        *                                                           *
        *  Thank you very much for using Q-Chem.  Have a nice day.  *
        *                                                           *
        *************************************************************


