25
 energy: -40.159841733831 gnorm: 0.000027563296 xtb: 6.4.1 (23d549d)
C        -4.64732860720000   -0.44118348230000    0.40641986300000
C        -3.42553648330000   -0.96065338650000    0.42768539910000
C        -2.19097177950000   -0.25293433680000    0.12596196230000
C        -2.14403608310000    1.01349164500000   -0.46896001930000
N        -1.03424598650000    1.68224119330000   -0.68185635440000
C         0.14044811430000    1.14812111950000   -0.35709632420000
C         1.29454773150000    2.02789811670000   -0.50580948980000
C         2.36285991570000    2.01009115480000    0.27960069410000
C         0.22146002070000   -0.16880407260000    0.12922599950000
C         1.50864265170000   -0.88350380100000    0.33551608140000
O         1.80077163630000   -1.49665368010000    1.33095853570000
O         2.27809390070000   -0.81630618220000   -0.75930017660000
C         3.54327581720000   -1.45630401600000   -0.68810957740000
C        -0.95805140480000   -0.84842929250000    0.39446709610000
H        -5.51094516870000   -1.03547199610000    0.65015915130000
H        -4.83571056200000    0.58879899130000    0.15686371400000
H        -3.29304597540000   -1.99835526960000    0.70868269500000
H        -3.04751902170000    1.51340823130000   -0.79065671160000
H         1.18492125780000    2.77846784300000   -1.27592008440000
H         2.46321323000000    1.31466556400000    1.09745689780000
H         3.17211144980000    2.70742052290000    0.14544300230000
H         3.85505894010000   -1.64155920300000   -1.71299353450000
H         3.46403292960000   -2.39218620790000   -0.13111168440000
H         4.26142072720000   -0.80271849340000   -0.18793964290000
H        -0.90939566880000   -1.84923669140000    0.80095330800000
