23
 energy: -36.718879253750 gnorm: 0.000053508424 xtb: 6.4.1 (23d549d)
C        -4.37387175860000   -0.03964992730000    0.00240090260000
C        -3.22893081310000    0.63314057300000    0.00085784880000
C        -1.88779311880000    0.06579679710000   -0.02487540400000
C        -1.63192145570000   -1.30677262210000   -0.06778284400000
C        -0.34092283330000   -1.78478615580000   -0.09942289100000
C         0.76452183840000   -0.93060368640000   -0.09629935200000
C         2.12523371110000   -1.45647190180000   -0.12314501880000
C         2.48363515850000   -2.65089216680000    0.33235279720000
C         0.51611658670000    0.45216008460000   -0.05006801230000
C         1.62216094490000    1.45731400980000   -0.05804335700000
O         2.57165865760000    1.42737657190000   -0.78959615430000
O         1.47634118380000    2.46471426240000    0.82773945720000
C        -0.79014768100000    0.92485430950000   -0.00874996660000
H        -5.32072668570000    0.47157312760000    0.02196688410000
H        -4.42043486970000   -1.11475570090000   -0.01610280380000
H        -3.25908156700000    1.71608482650000    0.01927993560000
H        -2.45298695750000   -2.00607893830000   -0.08582875180000
H        -0.17511782570000   -2.84965598770000   -0.15424460530000
H         2.87251602930000   -0.79244722940000   -0.53166767710000
H         1.78562289990000   -3.33651226240000    0.78430128450000
H         3.50686400330000   -2.98100792910000    0.28538000630000
H         0.68404778590000    2.36184745690000    1.37209000640000
H        -0.96985897740000    1.99340442440000   -0.00338527750000
