
Running Job 1 of 1 fragments/B026/conf-0/spe_input.inp
qchem fragments/B026/conf-0/spe_input.inp_352448.0 /gpfs/fs0/scratch/a/aspuru/rhickman/descriptor_computation/qchem352448/ 0
/scinet/niagara/software/commercial/qc52/exe/qcprog.exe_s fragments/B026/conf-0/spe_input.inp_352448.0 /gpfs/fs0/scratch/a/aspuru/rhickman/descriptor_computation/qchem352448/
                  Welcome to Q-Chem
     A Quantum Leap Into The Future Of Chemistry


 Q-Chem 5.2, Q-Chem, Inc., Pleasanton, CA (2019)

 License issued to: SRG Alan Aspuru-Guzik, University of Toronto

 Yihan Shao,  Zhengting Gan,  E. Epifanovsky,  A. T. B. Gilbert,  M. Wormit,  
 J. Kussmann,  A. W. Lange,  A. Behn,  Jia Deng,  Xintian Feng,  D. Ghosh,  
 M. Goldey,  P. R. Horn,  L. D. Jacobson,  I. Kaliman,  T. Kus,  A. Landau,  
 Jie Liu,  E. I. Proynov,  R. M. Richard,  R. P. Steele,  E. J. Sundstrom,  
 H. L. Woodcock III,  P. M. Zimmerman,  D. Zuev,  B. Albrecht,  E. Alguire,  
 S. A. Baeppler,  D. Barton,  Z. Benda,  Y. A. Bernard,  E. J. Berquist,  
 K. B. Bravaya,  H. Burton,  D. Casanova,  Chun-Min Chang,  Yunqing Chen,  
 A. Chien,  K. D. Closser,  M. P. Coons,  S. Coriani,  S. Dasgupta,  
 A. L. Dempwolff,  M. Diedenhofen,  Hainam Do,  R. G. Edgar,  Po-Tung Fang,  
 S. Faraji,  S. Fatehi,  Qingguo Feng,  K. D. Fenk,  J. Fosso-Tande,  
 J. Gayvert,  Qinghui Ge,  A. Ghysels,  G. Gidofalvi,  J. Gomes,  
 J. Gonthier,  A. Gunina,  D. Hait,  M. W. D. Hanson-Heine,  
 P. H. P. Harbach,  A. W. Hauser,  M. F. Herbst,  J. E. Herr,  
 E. G. Hohenstein,  Z. C. Holden,  Kerwin Hui,  B. C. Huynh,  T.-C. Jagau,  
 Hyunjun Ji,  B. Kaduk,  K. Khistyaev,  Jaehoon Kim,  P. Klunzinger,  K. Koh,  
 D. Kosenkov,  L. Koulias,  T. Kowalczyk,  C. M. Krauter,  A. Kunitsa,  
 Ka Un Lao,  A. Laurent,  K. V. Lawler,  Joonho Lee,  D. Lefrancois,  
 S. Lehtola,  D. S. Levine,  Yi-Pei Li,  You-Sheng Lin,  Fenglai Liu,  
 E. Livshits,  A. Luenser,  P. Manohar,  E. Mansoor,  S. F. Manzer,  
 Shan-Ping Mao,  Yuezhi Mao,  N. Mardirossian,  A. V. Marenich,  
 T. Markovich,  L. A. Martinez-Martinez,  S. A. Maurer,  N. J. Mayhall,  
 S. C. McKenzie,  J.-M. Mewes,  P. Morgante,  A. F. Morrison,  
 J. W. Mullinax,  K. Nanda,  T. S. Nguyen-Beck,  R. Olivares-Amaya,  
 J. A. Parkhill,  Zheng Pei,  T. M. Perrine,  F. Plasser,  P. Pokhilko,  
 S. Prager,  A. Prociuk,  E. Ramos,  D. R. Rehn,  F. Rob,  M. Scheurer,  
 M. Schneider,  N. Sergueev,  S. M. Sharada,  S. Sharma,  D. W. Small,  
 T. Stauch,  T. Stein,  Yu-Chuan Su,  A. J. W. Thom,  A. Tkatchenko,  
 T. Tsuchimochi,  N. M. Tubman,  L. Vogt,  M. L. Vidal,  O. Vydrov,  
 M. A. Watson,  J. Wenzel,  M. de Wergifosse,  T. A. Wesolowski,  A. White,  
 J. Witte,  A. Yamada,  Jun Yang,  K. Yao,  S. Yeganeh,  S. R. Yost,  
 Zhi-Qiang You,  A. Zech,  Igor Ying Zhang,  Xing Zhang,  Yan Zhao,  
 Ying Zhu,  B. R. Brooks,  G. K. L. Chan,  C. J. Cramer,  M. S. Gordon,  
 W. J. Hehre,  A. Klamt,  M. W. Schmidt,  C. D. Sherrill,  D. G. Truhlar,  
 A. Aspuru-Guzik,  R. Baer,  A. T. Bell,  N. A. Besley,  Jeng-Da Chai,  
 A. E. DePrince, III,  R. A. DiStasio Jr.,  A. Dreuw,  B. D. Dunietz,  
 T. R. Furlani,  Chao-Ping Hsu,  Yousung Jung,  Jing Kong,  D. S. Lambrecht,  
 WanZhen Liang,  C. Ochsenfeld,  V. A. Rassolov,  L. V. Slipchenko,  
 J. E. Subotnik,  T. Van Voorhis,  J. M. Herbert,  A. I. Krylov,  
 P. M. W. Gill,  M. Head-Gordon

 Contributors to earlier versions of Q-Chem not listed above: 
 R. D. Adamson,  B. Austin,  J. Baker,  G. J. O. Beran,  K. Brandhorst,  
 S. T. Brown,  E. F. C. Byrd,  A. K. Chakraborty,  C.-L. Cheng,  
 Siu Hung Chien,  D. M. Chipman,  D. L. Crittenden,  H. Dachsel,  
 R. J. Doerksen,  A. D. Dutoi,  L. Fusti-Molnar,  W. A. Goddard III,  
 A. Golubeva-Zadorozhnaya,  S. R. Gwaltney,  G. Hawkins,  A. Heyden,  
 S. Hirata,  G. Kedziora,  F. J. Keil,  C. Kelley,  Jihan Kim,  R. A. King,  
 R. Z. Khaliullin,  P. P. Korambath,  W. Kurlancheek,  A. M. Lee,  M. S. Lee,  
 S. V. Levchenko,  Ching Yeh Lin,  D. Liotard,  R. C. Lochan,  I. Lotan,  
 P. E. Maslen,  N. Nair,  D. P. O'Neill,  D. Neuhauser,  E. Neuscamman,  
 C. M. Oana,  R. Olson,  B. Peters,  R. Peverati,  P. A. Pieniazek,  
 Y. M. Rhee,  J. Ritchie,  M. A. Rohrdanz,  E. Rosta,  N. J. Russ,  
 H. F. Schaefer III,  N. E. Schultz,  N. Shenvi,  A. C. Simmonett,  A. Sodt,  
 D. Stuck,  K. S. Thanthiriwatte,  V. Vanovschi,  Tao Wang,  A. Warshel,  
 C. F. Williams,  Q. Wu,  X. Xu,  W. Zhang

 Please cite Q-Chem as follows:
 Y. Shao et al., Mol. Phys. 113, 184-215 (2015)
 DOI: 10.1080/00268976.2014.952696

 Q-Chem 5.2.1 for Intel X86 EM64T Linux

 Parts of Q-Chem use Armadillo 8.300.2 (Tropical Shenanigans).
 http://arma.sourceforge.net/

 Q-Chem begins on Tue Feb  8 16:13:13 2022  

Host: 
0

     Scratch files written to /gpfs/fs0/scratch/a/aspuru/rhickman/descriptor_computation/qchem352448//
 Jul1719 |scratch|qcdevops|jenkins|workspace|build_RNUM -1
Processing $rem in /scinet/niagara/software/commercial/qc52/config/preferences:
	 MEM_TOTAL  4000 
NAlpha2: 86
NElect   86
Mult     1

Checking the input file for inconsistencies... 	...done.

--------------------------------------------------------------
User input:
--------------------------------------------------------------
$molecule
0 1
C         0.40661371500000    2.84211877100000   -0.52040576720000
C         1.35646611040000    2.12177172960000    0.06112629520000
C         1.42263151140000    0.66176641060000    0.09816593210000
N         2.65625362750000    0.17114748800000    0.02123803110000
C         2.83962244420000   -1.13143684940000   -0.03246073350000
C         1.79383440280000   -2.04394688160000   -0.00801004520000
C         0.50855334380000   -1.55504449860000    0.13222245890000
C         0.29325217110000   -0.17769959520000    0.19829807150000
C        -1.03182968730000    0.37471699500000    0.44415609190000
C        -2.18275612090000   -0.16291889050000    0.07253434460000
F        -2.36087607850000   -1.27004552070000   -0.64062722780000
F        -3.37003881360000    0.37439945040000    0.34550013480000
H         0.45208853130000    3.91782401980000   -0.53636768890000
H        -0.43034244180000    2.39412883040000   -1.02976122660000
H         2.22316695040000    2.60562908630000    0.49066492470000
H         3.87009926460000   -1.45554464560000   -0.09523387110000
H         1.98106066410000   -3.10422517560000   -0.06860233070000
H        -0.32434459510000   -2.23673703170000    0.21250088510000
H        -1.08779063110000    1.30831463290000    0.98418214450000
$end

$rem
BASIS = 6-31G*
GUI = 2
METHOD = B3LYP
PRINT_ORBITALS false
MOLDEN_FORMAT false
--------------------------------------------------------------
 ----------------------------------------------------------------
             Standard Nuclear Orientation (Angstroms)
    I     Atom           X                Y                Z
 ----------------------------------------------------------------
    1      C      -0.2689490432    -2.8287231540    -0.4973388921
    2      C      -1.2350489590    -2.1260880001     0.0790756860
    3      C      -1.3357193061    -0.6677928556     0.1036943657
    4      N      -2.5806789487    -0.2071779873     0.0239586406
    5      C      -2.7948774152     1.0901942280    -0.0406787193
    6      C      -1.7709589635     2.0273691724    -0.0252142360
    7      C      -0.4743371271     1.5702358541     0.1177509301
    8      C      -0.2264343025     0.1989885153     0.1953685184
    9      C       1.1115779193    -0.3197907214     0.4444540152
   10      C       2.2491131319     0.2417174988     0.0669505283
   11      F       2.4003202917     1.3465876940    -0.6558591074
   12      F       3.4490324811    -0.2649960750     0.3431686016
   13      H      -0.2889643612    -3.9053005812    -0.5040437020
   14      H       0.5566988589    -2.3654432547    -1.0114506076
   15      H      -2.0896578347    -2.6266127024     0.5137139423
   16      H      -3.8327944665     1.3892787667    -0.1050638197
   17      H      -1.9832848742     3.0823616758    -0.0946669839
   18      H       0.3422657834     2.2721083739     0.1912557899
   19      H       1.1901189731    -1.2471341643     0.9923862701
 ----------------------------------------------------------------
 Molecular Point Group                 C1    NOp =  1
 Largest Abelian Subgroup              C1    NOp =  1
 Nuclear Repulsion Energy =         654.18076574 hartrees
 There are       43 alpha and       43 beta electrons
 Requested basis set is 6-31G(d)
 There are 62 shells and 194 basis functions

 Total QAlloc Memory Limit   4000 MB
 Mega-Array Size       188 MB
 MEM_STATIC part       192 MB
 A cutoff of  1.0D-08 yielded   1421 shell pairs
 There are     14740 function pairs
 Smallest overlap matrix eigenvalue = 6.57E-04

 Scale SEOQF with 1.000000e-01/1.000000e-01/1.000000e+00

 Standard Electronic Orientation quadrupole field applied
 Nucleus-field energy     =     0.0000000148 hartrees
 Guess from superposition of atomic densities
 Warning:  Energy on first SCF cycle will be non-variational
 SAD guess density has 86.000000 electrons

 -----------------------------------------------------------------------
  General SCF calculation program by
  Eric Jon Sundstrom, Paul Horn, Yuezhi Mao, Dmitri Zuev, Alec White,
  David Stuck, Shaama M.S., Shane Yost, Joonho Lee, David Small,
  Daniel Levine, Susi Lehtola, Hugh Burton, Evgeny Epifanovsky,
  Bang C. Huynh
 -----------------------------------------------------------------------
 Exchange:     0.2000 Hartree-Fock + 0.0800 Slater + 0.7200 B88
 Correlation:  0.1900 VWN1RPA + 0.8100 LYP
 Using SG-1 standard quadrature grid
 A restricted SCF calculation will be
 performed using DIIS
 SCF converges when DIIS error is below 1.0e-05
 ---------------------------------------
  Cycle       Energy         DIIS error
 ---------------------------------------
    1    -604.2678048988      5.75e-02  
    2    -601.3610048824      6.24e-03  
    3    -601.2094584559      8.49e-03  
    4    -601.5370328939      1.48e-03  
    5    -601.5463648078      5.37e-04  
    6    -601.5473880447      2.65e-04  
    7    -601.5477337330      5.60e-05  
    8    -601.5477473546      1.98e-05  
    9    -601.5477490226      4.89e-06  Convergence criterion met
 ---------------------------------------
 SCF time:   CPU 23.35s  wall 23.00s 
 SCF   energy in the final basis set =     -601.5477490226
 Total energy in the final basis set =     -601.5477490226
 
 --------------------------------------------------------------
 
                    Orbital Energies (a.u.)
 --------------------------------------------------------------
 
 Alpha MOs
 -- Occupied --
-24.7459 -24.7378 -14.3262 -10.3600 -10.2307 -10.2206 -10.2157 -10.2073
-10.2060 -10.1985 -10.1934 -10.1883  -1.2878  -1.2275  -0.9531  -0.8385
 -0.8078  -0.7769  -0.7396  -0.6626  -0.6403  -0.6223  -0.5844  -0.5694
 -0.5334  -0.5223  -0.5052  -0.5007  -0.4663  -0.4529  -0.4446  -0.4380
 -0.4290  -0.4218  -0.4046  -0.4042  -0.3823  -0.3579  -0.3140  -0.3027
 -0.2652  -0.2542  -0.2255
 -- Virtual --
 -0.0409  -0.0321   0.0361   0.0515   0.1021   0.1136   0.1246   0.1374
  0.1562   0.1607   0.1720   0.1788   0.2008   0.2057   0.2639   0.2820
  0.3076   0.3242   0.3333   0.3608   0.3969   0.4244   0.4388   0.4710
  0.4973   0.5110   0.5221   0.5271   0.5513   0.5604   0.5724   0.5789
  0.5837   0.5949   0.6020   0.6136   0.6244   0.6477   0.6590   0.6653
  0.6816   0.6969   0.7028   0.7613   0.7650   0.8138   0.8308   0.8371
  0.8537   0.8650   0.8790   0.8825   0.8954   0.9246   0.9413   0.9579
  0.9625   1.0059   1.0268   1.0451   1.0582   1.0877   1.1045   1.1305
  1.1351   1.1853   1.1912   1.1957   1.2140   1.2338   1.2763   1.3056
  1.3394   1.3594   1.3924   1.4164   1.4262   1.4410   1.4638   1.4818
  1.5006   1.5160   1.5347   1.5563   1.5919   1.6649   1.6733   1.7157
  1.7227   1.7646   1.7885   1.7990   1.8327   1.8390   1.8455   1.8613
  1.8756   1.9017   1.9607   1.9679   1.9777   2.0028   2.0050   2.0200
  2.0427   2.0666   2.1213   2.1601   2.1615   2.1852   2.2044   2.2299
  2.2415   2.2826   2.3145   2.3258   2.3437   2.3792   2.4002   2.4758
  2.5123   2.5349   2.5778   2.6047   2.6387   2.6525   2.6973   2.7008
  2.7277   2.7587   2.8276   2.8697   2.8887   2.9668   3.0173   3.1092
  3.1773   3.3019   3.4601   4.0619   4.0967   4.1070   4.1471   4.1735
  4.2376   4.2617   4.3882   4.4567   4.6839   4.7841   5.2284
 --------------------------------------------------------------
 
          Ground-State Mulliken Net Atomic Charges

     Atom                 Charge (a.u.)
  ----------------------------------------
      1 C                    -0.343315
      2 C                    -0.093113
      3 C                     0.217893
      4 N                    -0.474228
      5 C                     0.042790
      6 C                    -0.147250
      7 C                    -0.146703
      8 C                     0.134468
      9 C                    -0.328974
     10 C                     0.552595
     11 F                    -0.238058
     12 F                    -0.246140
     13 H                     0.150456
     14 H                     0.158892
     15 H                     0.151324
     16 H                     0.140849
     17 H                     0.138780
     18 H                     0.148304
     19 H                     0.181431
  ----------------------------------------
  Sum of atomic charges =     0.000000

 -----------------------------------------------------------------
                    Cartesian Multipole Moments
 -----------------------------------------------------------------
    Charge (ESU x 10^10)
                 0.0000
    Dipole Moment (Debye)
         X       0.4583      Y       0.5958      Z       0.3105
       Tot       0.8133
    Quadrupole Moments (Debye-Ang)
        XX     -72.0173     XY      -4.2328     YY     -59.1770
        XZ      -0.3397     YZ      -0.0813     ZZ     -68.1188
    Octopole Moments (Debye-Ang^2)
       XXX      36.3235    XXY      15.7845    XYY       6.0604
       YYY       5.8745    XXZ      -0.5496    XYZ       4.3089
       YYZ      -0.4365    XZZ      18.1999    YZZ       1.4214
       ZZZ      -2.8133
    Hexadecapole Moments (Debye-Ang^3)
      XXXX   -1581.5877   XXXY     -29.9561   XXYY    -393.0146
      XYYY       9.8281   YYYY    -857.7398   XXXZ      -5.7544
      XXYZ      -6.2820   XYYZ      -3.7088   YYYZ      -5.7289
      XXZZ    -276.5483   XYZZ       6.1379   YYZZ    -185.2158
      XZZZ      -5.3241   YZZZ     -11.2142   ZZZZ    -107.4039
 -----------------------------------------------------------------
Archival summary:
1\1\nia2015.scinet.local\SP\ProcedureUnspecified\6-31G*\2197\rhickman\TueFeb816:13:372022TueFeb816:13:372022\0\\#,ProcedureUnspecified,6-31G*,\\0,1\F\C,1,1.32893\C,2,1.32355,1,127.275\H,3,1.07998,2,116.519,1,177.181,0\F,2,1.33149,1,109.068,3,178.356,0\C,3,1.45652,2,126.132,1,-3.13362,0\C,6,1.39564,3,121.509,2,-31.3254,0\H,7,1.07929,6,120.05,3,3.22469,0\C,7,1.38226,6,119.822,3,-175.419,0\H,9,1.07839,7,120.991,6,-179.528,0\C,9,1.38814,7,118.021,6,2.16707,0\H,11,1.08207,9,121.438,7,177.221,0\N,11,1.31652,9,123.008,7,-2.61482,0\C,13,1.32983,11,119.775,9,-0.240489,0\C,14,1.46197,13,114.139,11,-176.12,0\H,15,1.08157,14,113.605,13,-30.6872,0\C,15,1.32639,14,125.865,13,144.188,0\H,17,1.07678,15,121.252,14,-177.531,0\H,17,1.07733,15,122.534,14,0.307582,0\\\@

 Total job time:  24.24s(wall), 23.49s(cpu) 
 Tue Feb  8 16:13:37 2022

        *************************************************************
        *                                                           *
        *  Thank you very much for using Q-Chem.  Have a nice day.  *
        *                                                           *
        *************************************************************


