44
 energy: -76.319365178210 gnorm: 0.000178043963 xtb: 6.4.1 (23d549d)
C        -0.00642799270000    5.17934028580000   -0.10920587300000
O        -1.37938610430000    4.88797400010000   -0.18059178650000
C        -1.77304842500000    3.58244203640000   -0.14687028750000
C        -3.15984398810000    3.37944881020000   -0.22056010440000
C        -3.70024527780000    2.11519648050000   -0.17643553510000
C        -0.90284990640000    2.50588676580000   -0.04556520370000
C        -1.45338101870000    1.23173768840000   -0.02987022800000
C        -2.84723290750000    1.02264561900000   -0.07522199300000
C        -3.05273328140000   -0.39519181360000    0.01993965230000
C        -4.17575660520000   -1.20636455360000    0.01005767630000
C        -4.02457420990000   -2.57737913530000    0.09889151680000
C        -2.75331244210000   -3.15212382440000    0.18113681280000
O        -2.51665646040000   -4.49551131020000    0.25446389200000
C        -3.61115589380000   -5.37729441970000    0.23501121890000
C        -1.61158744280000   -2.35369834220000    0.19136406310000
C        -1.77089882470000   -0.98275178750000    0.12849643230000
N        -0.81054901150000    0.01260268380000    0.09406843300000
C         0.56994302700000   -0.18126525860000    0.16696202350000
C         1.11821555230000   -0.99494464520000    1.15729722340000
C         2.48179646480000   -1.18174808370000    1.22300410450000
C         3.34323996460000   -0.55982014270000    0.31459710220000
C         4.76955526730000   -0.79826843600000    0.44939651320000
C         5.76328730800000   -0.28977792930000   -0.26504491080000
F         5.68974092680000    0.56605260920000   -1.27832439960000
F         7.04340589100000   -0.58519449930000   -0.04363359800000
C         2.78531036880000    0.25399835750000   -0.67433737100000
C         1.42042042730000    0.43613527530000   -0.74907333230000
H         0.06775742710000    6.26469888170000   -0.15596262740000
H         0.54279131530000    4.74382834370000   -0.95071246030000
H         0.43259550420000    4.82790659460000    0.83057447870000
H        -3.78774748070000    4.25212840740000   -0.30093383880000
H        -4.76914741320000    1.97370445730000   -0.21553220390000
H         0.16337436480000    2.64113031200000    0.03550424450000
H        -5.16160921710000   -0.77463822300000   -0.07025313000000
H        -4.90499722570000   -3.19959630800000    0.09377128200000
H        -3.18362759010000   -6.37720922740000    0.29435940380000
H        -4.18678673420000   -5.28600332020000   -0.69192819690000
H        -4.27400408670000   -5.21772751930000    1.09190593270000
H        -0.64437580120000   -2.82728811440000    0.23412001070000
H         0.46837898450000   -1.46304073920000    1.88050285040000
H         2.89404954560000   -1.81210294410000    1.99718751110000
H         5.07228368700000   -1.47634941430000    1.23442329590000
H         3.41633274700000    0.73958976370000   -1.40037887940000
H         0.99979185660000    1.04367478890000   -1.53594476150000
