23
 energy: -38.663757933739 gnorm: 0.000019789593 xtb: 6.4.1 (23d549d)
C        -3.14873183430000   -2.82144609460000   -0.00239208940000
C        -3.06664870510000   -1.49445123280000   -0.00040079610000
C        -1.83561230740000   -0.74710751280000   -0.00008685200000
C        -0.51803610780000   -1.12369502390000   -0.00131939290000
C         0.25173591060000    0.06817537860000   -0.00073208060000
C         1.71505278060000    0.07951896390000   -0.00238543540000
O         2.43937254740000    1.04677575770000   -0.00905914250000
O         2.19870459570000   -1.17676698720000    0.00449629630000
C         3.61167489130000   -1.29104336690000    0.00268607130000
C        -0.66734790880000    1.11727779960000    0.00104966190000
C        -0.60547997320000    2.55606612500000    0.00364503000000
C         0.48759833950000    3.31424193300000    0.00309781760000
O        -1.91262624320000    0.60545324700000    0.00152995030000
H        -4.09973995160000   -3.32331006570000   -0.00262730820000
H        -2.27182844940000   -3.44479966930000   -0.00380900550000
H        -3.95942777080000   -0.88387626150000    0.00092217460000
H        -0.12563397300000   -2.11839092440000   -0.00264516530000
H         3.83041360730000   -2.35565193560000    0.02093416530000
H         4.03497930690000   -0.79680842960000    0.87993741480000
H         4.03000564330000   -0.82857288950000   -0.89408460330000
H        -1.58975205190000    3.00929368180000    0.00625650380000
H         1.47401948660000    2.88788895440000    0.00003655150000
H         0.40877642750000    4.38782855220000    0.00554312970000
