
Running Job 1 of 1 fragments/C110/conf-1/spe_input.inp
qchem fragments/C110/conf-1/spe_input.inp_155623.0 /gpfs/fs0/scratch/a/aspuru/rhickman/descriptor_computation/qchem155623/ 0
/scinet/niagara/software/commercial/qc52/exe/qcprog.exe_s fragments/C110/conf-1/spe_input.inp_155623.0 /gpfs/fs0/scratch/a/aspuru/rhickman/descriptor_computation/qchem155623/
                  Welcome to Q-Chem
     A Quantum Leap Into The Future Of Chemistry


 Q-Chem 5.2, Q-Chem, Inc., Pleasanton, CA (2019)

 License issued to: SRG Alan Aspuru-Guzik, University of Toronto

 Yihan Shao,  Zhengting Gan,  E. Epifanovsky,  A. T. B. Gilbert,  M. Wormit,  
 J. Kussmann,  A. W. Lange,  A. Behn,  Jia Deng,  Xintian Feng,  D. Ghosh,  
 M. Goldey,  P. R. Horn,  L. D. Jacobson,  I. Kaliman,  T. Kus,  A. Landau,  
 Jie Liu,  E. I. Proynov,  R. M. Richard,  R. P. Steele,  E. J. Sundstrom,  
 H. L. Woodcock III,  P. M. Zimmerman,  D. Zuev,  B. Albrecht,  E. Alguire,  
 S. A. Baeppler,  D. Barton,  Z. Benda,  Y. A. Bernard,  E. J. Berquist,  
 K. B. Bravaya,  H. Burton,  D. Casanova,  Chun-Min Chang,  Yunqing Chen,  
 A. Chien,  K. D. Closser,  M. P. Coons,  S. Coriani,  S. Dasgupta,  
 A. L. Dempwolff,  M. Diedenhofen,  Hainam Do,  R. G. Edgar,  Po-Tung Fang,  
 S. Faraji,  S. Fatehi,  Qingguo Feng,  K. D. Fenk,  J. Fosso-Tande,  
 J. Gayvert,  Qinghui Ge,  A. Ghysels,  G. Gidofalvi,  J. Gomes,  
 J. Gonthier,  A. Gunina,  D. Hait,  M. W. D. Hanson-Heine,  
 P. H. P. Harbach,  A. W. Hauser,  M. F. Herbst,  J. E. Herr,  
 E. G. Hohenstein,  Z. C. Holden,  Kerwin Hui,  B. C. Huynh,  T.-C. Jagau,  
 Hyunjun Ji,  B. Kaduk,  K. Khistyaev,  Jaehoon Kim,  P. Klunzinger,  K. Koh,  
 D. Kosenkov,  L. Koulias,  T. Kowalczyk,  C. M. Krauter,  A. Kunitsa,  
 Ka Un Lao,  A. Laurent,  K. V. Lawler,  Joonho Lee,  D. Lefrancois,  
 S. Lehtola,  D. S. Levine,  Yi-Pei Li,  You-Sheng Lin,  Fenglai Liu,  
 E. Livshits,  A. Luenser,  P. Manohar,  E. Mansoor,  S. F. Manzer,  
 Shan-Ping Mao,  Yuezhi Mao,  N. Mardirossian,  A. V. Marenich,  
 T. Markovich,  L. A. Martinez-Martinez,  S. A. Maurer,  N. J. Mayhall,  
 S. C. McKenzie,  J.-M. Mewes,  P. Morgante,  A. F. Morrison,  
 J. W. Mullinax,  K. Nanda,  T. S. Nguyen-Beck,  R. Olivares-Amaya,  
 J. A. Parkhill,  Zheng Pei,  T. M. Perrine,  F. Plasser,  P. Pokhilko,  
 S. Prager,  A. Prociuk,  E. Ramos,  D. R. Rehn,  F. Rob,  M. Scheurer,  
 M. Schneider,  N. Sergueev,  S. M. Sharada,  S. Sharma,  D. W. Small,  
 T. Stauch,  T. Stein,  Yu-Chuan Su,  A. J. W. Thom,  A. Tkatchenko,  
 T. Tsuchimochi,  N. M. Tubman,  L. Vogt,  M. L. Vidal,  O. Vydrov,  
 M. A. Watson,  J. Wenzel,  M. de Wergifosse,  T. A. Wesolowski,  A. White,  
 J. Witte,  A. Yamada,  Jun Yang,  K. Yao,  S. Yeganeh,  S. R. Yost,  
 Zhi-Qiang You,  A. Zech,  Igor Ying Zhang,  Xing Zhang,  Yan Zhao,  
 Ying Zhu,  B. R. Brooks,  G. K. L. Chan,  C. J. Cramer,  M. S. Gordon,  
 W. J. Hehre,  A. Klamt,  M. W. Schmidt,  C. D. Sherrill,  D. G. Truhlar,  
 A. Aspuru-Guzik,  R. Baer,  A. T. Bell,  N. A. Besley,  Jeng-Da Chai,  
 A. E. DePrince, III,  R. A. DiStasio Jr.,  A. Dreuw,  B. D. Dunietz,  
 T. R. Furlani,  Chao-Ping Hsu,  Yousung Jung,  Jing Kong,  D. S. Lambrecht,  
 WanZhen Liang,  C. Ochsenfeld,  V. A. Rassolov,  L. V. Slipchenko,  
 J. E. Subotnik,  T. Van Voorhis,  J. M. Herbert,  A. I. Krylov,  
 P. M. W. Gill,  M. Head-Gordon

 Contributors to earlier versions of Q-Chem not listed above: 
 R. D. Adamson,  B. Austin,  J. Baker,  G. J. O. Beran,  K. Brandhorst,  
 S. T. Brown,  E. F. C. Byrd,  A. K. Chakraborty,  C.-L. Cheng,  
 Siu Hung Chien,  D. M. Chipman,  D. L. Crittenden,  H. Dachsel,  
 R. J. Doerksen,  A. D. Dutoi,  L. Fusti-Molnar,  W. A. Goddard III,  
 A. Golubeva-Zadorozhnaya,  S. R. Gwaltney,  G. Hawkins,  A. Heyden,  
 S. Hirata,  G. Kedziora,  F. J. Keil,  C. Kelley,  Jihan Kim,  R. A. King,  
 R. Z. Khaliullin,  P. P. Korambath,  W. Kurlancheek,  A. M. Lee,  M. S. Lee,  
 S. V. Levchenko,  Ching Yeh Lin,  D. Liotard,  R. C. Lochan,  I. Lotan,  
 P. E. Maslen,  N. Nair,  D. P. O'Neill,  D. Neuhauser,  E. Neuscamman,  
 C. M. Oana,  R. Olson,  B. Peters,  R. Peverati,  P. A. Pieniazek,  
 Y. M. Rhee,  J. Ritchie,  M. A. Rohrdanz,  E. Rosta,  N. J. Russ,  
 H. F. Schaefer III,  N. E. Schultz,  N. Shenvi,  A. C. Simmonett,  A. Sodt,  
 D. Stuck,  K. S. Thanthiriwatte,  V. Vanovschi,  Tao Wang,  A. Warshel,  
 C. F. Williams,  Q. Wu,  X. Xu,  W. Zhang

 Please cite Q-Chem as follows:
 Y. Shao et al., Mol. Phys. 113, 184-215 (2015)
 DOI: 10.1080/00268976.2014.952696

 Q-Chem 5.2.1 for Intel X86 EM64T Linux

 Parts of Q-Chem use Armadillo 8.300.2 (Tropical Shenanigans).
 http://arma.sourceforge.net/

 Q-Chem begins on Mon Feb  7 17:54:29 2022  

Host: 
0

     Scratch files written to /gpfs/fs0/scratch/a/aspuru/rhickman/descriptor_computation/qchem155623//
 Jul1719 |scratch|qcdevops|jenkins|workspace|build_RNUM -1
Processing $rem in /scinet/niagara/software/commercial/qc52/config/preferences:
	 MEM_TOTAL  4000 
NAlpha2: 92
NElect   92
Mult     1

Checking the input file for inconsistencies... 	...done.

--------------------------------------------------------------
User input:
--------------------------------------------------------------
$molecule
0 1
C        -4.17044864430000   -1.17029181230000   -0.22162954130000
C        -3.27691105210000   -0.20537193530000   -0.04425919090000
C        -1.82762261970000   -0.36704626510000    0.00650759570000
C        -1.17837364670000   -1.60673262220000   -0.02344733110000
C         0.20080590440000   -1.62581689480000   -0.02348036080000
C         0.91264320860000   -0.42957891360000    0.02001611380000
C         2.40122295270000   -0.50424914470000   -0.04402029670000
N         2.97491658470000    0.36572458860000   -0.91367881570000
O         3.04986248560000   -1.30198113640000    0.59721258330000
C         0.18010112500000    0.76547090980000    0.13678544580000
C         0.83040137230000    2.05922756830000    0.34445797300000
C         0.20120325950000    3.21639828780000    0.18354095780000
N        -1.14621602820000    0.76846228860000    0.10701682900000
H        -5.22529192670000   -0.95678706550000   -0.24690980230000
H        -3.89683564900000   -2.20395446180000   -0.35044439060000
H        -3.59645725170000    0.82136651140000    0.07110826460000
H        -1.73912583800000   -2.52653394560000   -0.04712925010000
H         0.74829067540000   -2.55646123890000   -0.06240218610000
H         2.43286530940000    0.99260154990000   -1.48070540710000
H         3.97397776700000    0.33724249370000   -1.03392953620000
H         1.86321695860000    2.02670266910000    0.66334685890000
H        -0.82820626250000    3.23889065190000   -0.12983766560000
H         0.68834655740000    4.15974305940000    0.36101847950000
$end

$rem
BASIS = 6-31G*
GUI = 2
METHOD = B3LYP
PRINT_ORBITALS false
MOLDEN_FORMAT false
--------------------------------------------------------------
 ----------------------------------------------------------------
             Standard Nuclear Orientation (Angstroms)
    I     Atom           X                Y                Z
 ----------------------------------------------------------------
    1      C       4.2740885731    -0.5417614000     0.1984464704
    2      C       3.2427604614     0.2783172376     0.0410508124
    3      C       1.8356691608    -0.1031258626    -0.0201704982
    4      C       1.3849902647    -1.4283122305    -0.0238329697
    5      C       0.0251903318    -1.6593990718    -0.0304253234
    6      C      -0.8622942415    -0.5862397420    -0.0474483549
    7      C      -2.3216708222    -0.8906783382     0.0080772843
    8      N      -3.0229732376    -0.1415138586     0.8964534007
    9      O      -2.8393869879    -1.7623319261    -0.6556087674
   10      C      -0.3223918834     0.7098583369    -0.1313070159
   11      C      -1.1639883154     1.8929446619    -0.3097636630
   12      C      -0.7205314933     3.1287358630    -0.1174233934
   13      N       0.9876356118     0.9161644324    -0.0955569606
   14      H       5.2834729545    -0.1691797170     0.2337137222
   15      H       4.1627917771    -1.6081271360     0.3003922884
   16      H       3.4005008583     1.3445734963    -0.0474185005
   17      H       2.0806455980    -2.2511673204    -0.0204438636
   18      H      -0.3725194370    -2.6638892137    -0.0170136591
   19      H      -2.5842276730     0.5468396217     1.4812484767
   20      H      -4.0058109642    -0.3264143109     1.0115035524
   21      H      -2.1792947355     1.7099075500    -0.6339647036
   22      H       0.2929572361     3.3014776792     0.2010053934
   23      H      -1.3469885464     3.9900440169    -0.2736477390
 ----------------------------------------------------------------
 Molecular Point Group                 C1    NOp =  1
 Largest Abelian Subgroup              C1    NOp =  1
 Nuclear Repulsion Energy =         730.68489125 hartrees
 There are       46 alpha and       46 beta electrons
 Requested basis set is 6-31G(d)
 There are 72 shells and 215 basis functions

 Total QAlloc Memory Limit   4000 MB
 Mega-Array Size       188 MB
 MEM_STATIC part       192 MB
 A cutoff of  1.0D-08 yielded   1781 shell pairs
 There are     17393 function pairs
 Smallest overlap matrix eigenvalue = 6.11E-04

 Scale SEOQF with 1.000000e-02/1.000000e-01/1.000000e+00

 Standard Electronic Orientation quadrupole field applied
 Nucleus-field energy     =     0.0000000009 hartrees
 Guess from superposition of atomic densities
 Warning:  Energy on first SCF cycle will be non-variational
 SAD guess density has 92.000000 electrons

 -----------------------------------------------------------------------
  General SCF calculation program by
  Eric Jon Sundstrom, Paul Horn, Yuezhi Mao, Dmitri Zuev, Alec White,
  David Stuck, Shaama M.S., Shane Yost, Joonho Lee, David Small,
  Daniel Levine, Susi Lehtola, Hugh Burton, Evgeny Epifanovsky,
  Bang C. Huynh
 -----------------------------------------------------------------------
 Exchange:     0.2000 Hartree-Fock + 0.0800 Slater + 0.7200 B88
 Correlation:  0.1900 VWN1RPA + 0.8100 LYP
 Using SG-1 standard quadrature grid
 A restricted SCF calculation will be
 performed using DIIS
 SCF converges when DIIS error is below 1.0e-05
 ---------------------------------------
  Cycle       Energy         DIIS error
 ---------------------------------------
    1    -574.8312916628      5.64e-02  
    2    -571.5487339878      6.59e-03  
    3    -571.3010896758      1.01e-02  
    4    -571.7411151922      2.87e-03  
    5    -571.7815860517      4.81e-04  
    6    -571.7823762054      2.57e-04  
    7    -571.7827168928      5.98e-05  
    8    -571.7827336938      2.69e-05  
    9    -571.7827378240      4.64e-06  Convergence criterion met
 ---------------------------------------
 SCF time:   CPU 31.70s  wall 32.00s 
 SCF   energy in the final basis set =     -571.7827378240
 Total energy in the final basis set =     -571.7827378240
 
 --------------------------------------------------------------
 
                    Orbital Energies (a.u.)
 --------------------------------------------------------------
 
 Alpha MOs
 -- Occupied --
-19.1126 -14.3602 -14.3275 -10.2916 -10.2360 -10.2340 -10.2097 -10.2057
-10.1999 -10.1935 -10.1916 -10.1910 -10.1862  -1.0401  -0.9580  -0.9115
 -0.8219  -0.8146  -0.7762  -0.7400  -0.6707  -0.6478  -0.6067  -0.5838
 -0.5629  -0.5512  -0.5223  -0.4966  -0.4811  -0.4702  -0.4401  -0.4309
 -0.4242  -0.4154  -0.4033  -0.4022  -0.3931  -0.3658  -0.3537  -0.3268
 -0.3035  -0.2718  -0.2688  -0.2632  -0.2465  -0.2305
 -- Virtual --
 -0.0552  -0.0434   0.0178   0.0421   0.0746   0.0936   0.1025   0.1206
  0.1291   0.1323   0.1464   0.1579   0.1765   0.1937   0.2043   0.2147
  0.2498   0.2685   0.2900   0.2939   0.3186   0.3269   0.3432   0.3538
  0.3838   0.3908   0.4485   0.4522   0.4763   0.5029   0.5158   0.5304
  0.5385   0.5451   0.5524   0.5748   0.5814   0.5939   0.6081   0.6112
  0.6265   0.6295   0.6358   0.6521   0.6622   0.6714   0.6785   0.6847
  0.6925   0.7034   0.7227   0.7396   0.7722   0.7776   0.8115   0.8385
  0.8483   0.8544   0.8688   0.8730   0.8789   0.8880   0.8974   0.9071
  0.9287   0.9374   0.9510   0.9610   0.9841   0.9898   1.0035   1.0336
  1.0514   1.0768   1.0874   1.1060   1.1298   1.1472   1.1698   1.1839
  1.2142   1.2295   1.2465   1.2841   1.3093   1.3333   1.3443   1.3909
  1.4056   1.4410   1.4550   1.4727   1.4843   1.4948   1.5215   1.5540
  1.5819   1.6332   1.6676   1.6745   1.6882   1.6953   1.7137   1.7359
  1.7956   1.8021   1.8176   1.8529   1.8695   1.8792   1.9072   1.9672
  1.9736   1.9831   1.9901   2.0169   2.0244   2.0372   2.0953   2.1188
  2.1365   2.1598   2.1788   2.1943   2.2194   2.2268   2.2402   2.2755
  2.3065   2.3235   2.3301   2.3638   2.3895   2.4113   2.4653   2.4828
  2.5228   2.5511   2.5783   2.6026   2.6280   2.6682   2.6940   2.7070
  2.7290   2.7614   2.8019   2.8192   2.9046   2.9145   2.9687   3.0389
  3.0941   3.1271   3.3049   3.4853   3.8333   4.0527   4.0696   4.1072
  4.1223   4.1651   4.1958   4.2433   4.3189   4.4062   4.4746   4.5605
  4.7321
 --------------------------------------------------------------
 
          Ground-State Mulliken Net Atomic Charges

     Atom                 Charge (a.u.)
  ----------------------------------------
      1 C                    -0.344044
      2 C                    -0.091262
      3 C                     0.312960
      4 C                    -0.178771
      5 C                    -0.124253
      6 C                     0.026978
      7 C                     0.493250
      8 N                    -0.740034
      9 O                    -0.492592
     10 C                     0.268858
     11 C                    -0.132574
     12 C                    -0.325311
     13 N                    -0.576807
     14 H                     0.152682
     15 H                     0.146431
     16 H                     0.145972
     17 H                     0.139671
     18 H                     0.164819
     19 H                     0.344321
     20 H                     0.343037
     21 H                     0.151915
     22 H                     0.169860
     23 H                     0.144896
  ----------------------------------------
  Sum of atomic charges =     0.000000

 -----------------------------------------------------------------
                    Cartesian Multipole Moments
 -----------------------------------------------------------------
    Charge (ESU x 10^10)
                 0.0000
    Dipole Moment (Debye)
         X       0.6179      Y       1.1589      Z       2.4869
       Tot       2.8124
    Quadrupole Moments (Debye-Ang)
        XX     -66.5776     XY     -10.8078     YY     -73.4807
        XZ      -6.8615     YZ      -1.8181     ZZ     -76.6456
    Octopole Moments (Debye-Ang^2)
       XXX      -6.1701    XXY      18.7273    XYY      11.5672
       YYY       5.3251    XXZ      27.6649    XYZ       6.5737
       YYZ       5.7218    XZZ     -14.4650    YZZ       1.1235
       ZZZ       3.9614
    Hexadecapole Moments (Debye-Ang^3)
      XXXX   -2027.8092   XXXY     -50.8378   XXYY    -575.7542
      XYYY     -36.3959   YYYY    -949.4635   XXXZ     -84.5252
      XXYZ     -23.5250   XYYZ      -9.0609   YYYZ      -6.6769
      XXZZ    -418.9873   XYZZ      -0.0089   YYZZ    -207.2253
      XZZZ     -14.1788   YZZZ       8.5031   ZZZZ    -132.2951
 -----------------------------------------------------------------
Archival summary:
1\1\nia1977.scinet.local\SP\ProcedureUnspecified\6-31G*\121010\rhickman\MonFeb717:55:022022MonFeb717:55:022022\0\\#,ProcedureUnspecified,6-31G*,\\0,1\N\C,1,1.32665\C,1,1.32808,2,120.845\C,3,1.39973,1,121.391,2,2.30826,0\H,4,1.07751,3,121.005,1,176.396,0\C,4,1.37931,3,118.428,1,-3.67424,0\H,6,1.08044,4,121.238,3,-178.98,0\C,6,1.39269,4,119.946,3,0.672735,0\C,3,1.45916,1,114.677,2,-178.703,0\H,9,1.08149,3,113.263,1,-3.67482,0\C,9,1.327,3,126.361,1,175.787,0\H,11,1.07653,9,121.246,3,-179.909,0\H,11,1.07699,9,122.875,3,-0.0476871,0\C,2,1.46281,1,116.464,3,-175.809,0\H,14,1.08141,2,116.094,1,162.202,0\C,14,1.32696,2,122.905,1,-16.4517,0\H,16,1.07629,14,120.467,2,-1.13,0\H,16,1.07643,14,121.982,2,178.652,0\C,8,1.49183,6,117.754,4,-177.308,0\O,19,1.21173,8,122.982,6,-44.5691,0\N,19,1.35731,8,114.656,6,133.37,0\H,21,1.00415,19,122.261,8,-1.30191,0\H,21,1.00668,19,118.547,8,-177.317,0\\\@

 Total job time:  32.58s(wall), 31.88s(cpu) 
 Mon Feb  7 17:55:02 2022

        *************************************************************
        *                                                           *
        *  Thank you very much for using Q-Chem.  Have a nice day.  *
        *                                                           *
        *************************************************************


