23
 energy: -42.291300035854 gnorm: 0.000181404501 xtb: 6.5.0 (unknown)
C            1.00792896400000        3.72299792950000       -0.96243340430000
C            1.06732896800000        2.50084349530000       -0.44990750650000
C           -0.08010150880000        1.61797492040000       -0.25108555400000
C           -1.35283029080000        2.12828877110000       -0.01107805080000
C           -2.43141056740000        1.29576698440000        0.21623137170000
C           -2.28653816040000       -0.08457311990000        0.20329702650000
C           -3.43158965020000       -1.01979276930000        0.42672269850000
C           -1.01231843090000       -0.58460093790000       -0.03700522060000
F           -0.86108122710000       -1.92607978010000       -0.09938212850000
C            0.09768831050000        0.22380958900000       -0.25386205490000
C            1.40948262350000       -0.36969383730000       -0.53315317820000
C            1.95086658280000       -1.35210697590000        0.16639614780000
F            1.46098335920000       -1.91166418330000        1.26096947560000
F            3.13449359560000       -1.89125162260000       -0.11415092590000
H            1.89098408470000        4.32740926450000       -1.07754600680000
H            0.08461709730000        4.16056080820000       -1.30233548490000
H            2.02464418310000        2.09474785300000       -0.15072998050000
H           -1.49204970790000        3.19742511090000        0.02180986780000
H           -3.40557537160000        1.72019280220000        0.40795578120000
H           -4.32828062690000       -0.47259940990000        0.70324137560000
H           -3.18854822030000       -1.73193439340000        1.21370496590000
H           -3.63135618690000       -1.59114841540000       -0.47948677340000
H            1.97120275280000        0.00872379170000       -1.37326296510000
