
Running Job 1 of 1 fragments/B018/conf-0/spe_input.inp
qchem fragments/B018/conf-0/spe_input.inp_143814.0 /gpfs/fs0/scratch/a/aspuru/rhickman/descriptor_computation/qchem143814/ 0
/scinet/niagara/software/commercial/qc52/exe/qcprog.exe_s fragments/B018/conf-0/spe_input.inp_143814.0 /gpfs/fs0/scratch/a/aspuru/rhickman/descriptor_computation/qchem143814/
                  Welcome to Q-Chem
     A Quantum Leap Into The Future Of Chemistry


 Q-Chem 5.2, Q-Chem, Inc., Pleasanton, CA (2019)

 License issued to: SRG Alan Aspuru-Guzik, University of Toronto

 Yihan Shao,  Zhengting Gan,  E. Epifanovsky,  A. T. B. Gilbert,  M. Wormit,  
 J. Kussmann,  A. W. Lange,  A. Behn,  Jia Deng,  Xintian Feng,  D. Ghosh,  
 M. Goldey,  P. R. Horn,  L. D. Jacobson,  I. Kaliman,  T. Kus,  A. Landau,  
 Jie Liu,  E. I. Proynov,  R. M. Richard,  R. P. Steele,  E. J. Sundstrom,  
 H. L. Woodcock III,  P. M. Zimmerman,  D. Zuev,  B. Albrecht,  E. Alguire,  
 S. A. Baeppler,  D. Barton,  Z. Benda,  Y. A. Bernard,  E. J. Berquist,  
 K. B. Bravaya,  H. Burton,  D. Casanova,  Chun-Min Chang,  Yunqing Chen,  
 A. Chien,  K. D. Closser,  M. P. Coons,  S. Coriani,  S. Dasgupta,  
 A. L. Dempwolff,  M. Diedenhofen,  Hainam Do,  R. G. Edgar,  Po-Tung Fang,  
 S. Faraji,  S. Fatehi,  Qingguo Feng,  K. D. Fenk,  J. Fosso-Tande,  
 J. Gayvert,  Qinghui Ge,  A. Ghysels,  G. Gidofalvi,  J. Gomes,  
 J. Gonthier,  A. Gunina,  D. Hait,  M. W. D. Hanson-Heine,  
 P. H. P. Harbach,  A. W. Hauser,  M. F. Herbst,  J. E. Herr,  
 E. G. Hohenstein,  Z. C. Holden,  Kerwin Hui,  B. C. Huynh,  T.-C. Jagau,  
 Hyunjun Ji,  B. Kaduk,  K. Khistyaev,  Jaehoon Kim,  P. Klunzinger,  K. Koh,  
 D. Kosenkov,  L. Koulias,  T. Kowalczyk,  C. M. Krauter,  A. Kunitsa,  
 Ka Un Lao,  A. Laurent,  K. V. Lawler,  Joonho Lee,  D. Lefrancois,  
 S. Lehtola,  D. S. Levine,  Yi-Pei Li,  You-Sheng Lin,  Fenglai Liu,  
 E. Livshits,  A. Luenser,  P. Manohar,  E. Mansoor,  S. F. Manzer,  
 Shan-Ping Mao,  Yuezhi Mao,  N. Mardirossian,  A. V. Marenich,  
 T. Markovich,  L. A. Martinez-Martinez,  S. A. Maurer,  N. J. Mayhall,  
 S. C. McKenzie,  J.-M. Mewes,  P. Morgante,  A. F. Morrison,  
 J. W. Mullinax,  K. Nanda,  T. S. Nguyen-Beck,  R. Olivares-Amaya,  
 J. A. Parkhill,  Zheng Pei,  T. M. Perrine,  F. Plasser,  P. Pokhilko,  
 S. Prager,  A. Prociuk,  E. Ramos,  D. R. Rehn,  F. Rob,  M. Scheurer,  
 M. Schneider,  N. Sergueev,  S. M. Sharada,  S. Sharma,  D. W. Small,  
 T. Stauch,  T. Stein,  Yu-Chuan Su,  A. J. W. Thom,  A. Tkatchenko,  
 T. Tsuchimochi,  N. M. Tubman,  L. Vogt,  M. L. Vidal,  O. Vydrov,  
 M. A. Watson,  J. Wenzel,  M. de Wergifosse,  T. A. Wesolowski,  A. White,  
 J. Witte,  A. Yamada,  Jun Yang,  K. Yao,  S. Yeganeh,  S. R. Yost,  
 Zhi-Qiang You,  A. Zech,  Igor Ying Zhang,  Xing Zhang,  Yan Zhao,  
 Ying Zhu,  B. R. Brooks,  G. K. L. Chan,  C. J. Cramer,  M. S. Gordon,  
 W. J. Hehre,  A. Klamt,  M. W. Schmidt,  C. D. Sherrill,  D. G. Truhlar,  
 A. Aspuru-Guzik,  R. Baer,  A. T. Bell,  N. A. Besley,  Jeng-Da Chai,  
 A. E. DePrince, III,  R. A. DiStasio Jr.,  A. Dreuw,  B. D. Dunietz,  
 T. R. Furlani,  Chao-Ping Hsu,  Yousung Jung,  Jing Kong,  D. S. Lambrecht,  
 WanZhen Liang,  C. Ochsenfeld,  V. A. Rassolov,  L. V. Slipchenko,  
 J. E. Subotnik,  T. Van Voorhis,  J. M. Herbert,  A. I. Krylov,  
 P. M. W. Gill,  M. Head-Gordon

 Contributors to earlier versions of Q-Chem not listed above: 
 R. D. Adamson,  B. Austin,  J. Baker,  G. J. O. Beran,  K. Brandhorst,  
 S. T. Brown,  E. F. C. Byrd,  A. K. Chakraborty,  C.-L. Cheng,  
 Siu Hung Chien,  D. M. Chipman,  D. L. Crittenden,  H. Dachsel,  
 R. J. Doerksen,  A. D. Dutoi,  L. Fusti-Molnar,  W. A. Goddard III,  
 A. Golubeva-Zadorozhnaya,  S. R. Gwaltney,  G. Hawkins,  A. Heyden,  
 S. Hirata,  G. Kedziora,  F. J. Keil,  C. Kelley,  Jihan Kim,  R. A. King,  
 R. Z. Khaliullin,  P. P. Korambath,  W. Kurlancheek,  A. M. Lee,  M. S. Lee,  
 S. V. Levchenko,  Ching Yeh Lin,  D. Liotard,  R. C. Lochan,  I. Lotan,  
 P. E. Maslen,  N. Nair,  D. P. O'Neill,  D. Neuhauser,  E. Neuscamman,  
 C. M. Oana,  R. Olson,  B. Peters,  R. Peverati,  P. A. Pieniazek,  
 Y. M. Rhee,  J. Ritchie,  M. A. Rohrdanz,  E. Rosta,  N. J. Russ,  
 H. F. Schaefer III,  N. E. Schultz,  N. Shenvi,  A. C. Simmonett,  A. Sodt,  
 D. Stuck,  K. S. Thanthiriwatte,  V. Vanovschi,  Tao Wang,  A. Warshel,  
 C. F. Williams,  Q. Wu,  X. Xu,  W. Zhang

 Please cite Q-Chem as follows:
 Y. Shao et al., Mol. Phys. 113, 184-215 (2015)
 DOI: 10.1080/00268976.2014.952696

 Q-Chem 5.2.1 for Intel X86 EM64T Linux

 Parts of Q-Chem use Armadillo 8.300.2 (Tropical Shenanigans).
 http://arma.sourceforge.net/

 Q-Chem begins on Mon Feb  7 17:19:44 2022  

Host: 
0

     Scratch files written to /gpfs/fs0/scratch/a/aspuru/rhickman/descriptor_computation/qchem143814//
 Jul1719 |scratch|qcdevops|jenkins|workspace|build_RNUM -1
Processing $rem in /scinet/niagara/software/commercial/qc52/config/preferences:
	 MEM_TOTAL  4000 
NAlpha2: 86
NElect   86
Mult     1

Checking the input file for inconsistencies... 	...done.

--------------------------------------------------------------
User input:
--------------------------------------------------------------
$molecule
0 1
C        -4.53592790440000   -0.98338262410000   -0.00542593280000
C        -3.78196546640000    0.10959552650000    0.00548849380000
C        -2.32634679210000    0.15763324230000    0.00228391500000
C        -1.50170104130000   -0.97245738130000   -0.00171071010000
C        -0.13164393490000   -0.81440582500000   -0.00423913730000
C         0.41057875230000    0.47494103600000   -0.00297579430000
C         1.82929880710000    0.77548127420000   -0.00521030790000
C         2.84437253500000   -0.07701257590000   -0.00027131720000
F         2.79306747130000   -1.40334270860000    0.00783611960000
F         4.11848411490000    0.30593988240000   -0.00242679310000
C        -0.50373407200000    1.53637243860000    0.00090199800000
N        -1.80667545570000    1.38830484980000    0.00381925040000
H        -5.61039785760000   -0.91937568190000   -0.00226444760000
H        -4.12440835320000   -1.97849847840000   -0.01839856450000
H        -4.23947490570000    1.08945218000000    0.01696559830000
H        -1.92850735140000   -1.96236866560000   -0.00232862470000
H         0.50731619430000   -1.68329015060000   -0.00740432700000
H         2.10016175620000    1.82148519450000   -0.01070298230000
H        -0.15182053710000    2.56093428690000    0.00207224930000
$end

$rem
BASIS = 6-31G*
GUI = 2
METHOD = B3LYP
PRINT_ORBITALS false
MOLDEN_FORMAT false
--------------------------------------------------------------
 ----------------------------------------------------------------
             Standard Nuclear Orientation (Angstroms)
    I     Atom           X                Y                Z
 ----------------------------------------------------------------
    1      C       4.4337666834    -0.9137070228     0.0049687901
    2      C       3.6626638206     0.1672508687    -0.0055255956
    3      C       2.2064686010     0.1923288190    -0.0023325654
    4      C       1.3997448378    -0.9506260019     0.0011939132
    5      C       0.0273658358    -0.8141984742     0.0037564771
    6      C      -0.5351201297     0.4664386043     0.0029959650
    7      C      -1.9584028190     0.7445698769     0.0053204219
    8      C      -2.9599079599    -0.1238218488     0.0000199905
    9      F      -2.8876952848    -1.4491747531    -0.0086153845
   10      F      -4.2398996461     0.2389916406     0.0023013314
   11      C       0.3623421913     1.5421565890    -0.0004391745
   12      N       1.6674563912     1.4146536467    -0.0033879973
   13      H       5.5070938228    -0.8327643068     0.0018555028
   14      H       4.0379893121    -1.9151931862     0.0175358263
   15      H       4.1046659506     1.1542043112    -0.0166022208
   16      H       1.8421072179    -1.9336844080     0.0014259951
   17      H      -0.5978141385    -1.6930512305     0.0065616227
   18      H      -2.2457257977     1.7861704504     0.0112245915
   19      H      -0.0056830944     2.5610423943    -0.0012081924
 ----------------------------------------------------------------
 Molecular Point Group                 C1    NOp =  1
 Largest Abelian Subgroup              C1    NOp =  1
 Nuclear Repulsion Energy =         631.43888925 hartrees
 There are       43 alpha and       43 beta electrons
 Requested basis set is 6-31G(d)
 There are 62 shells and 194 basis functions

 Total QAlloc Memory Limit   4000 MB
 Mega-Array Size       188 MB
 MEM_STATIC part       192 MB
 A cutoff of  1.0D-08 yielded   1314 shell pairs
 There are     13686 function pairs
 Smallest overlap matrix eigenvalue = 6.29E-04

 Scale SEOQF with 1.000000e-02/1.000000e-01/1.000000e+00

 Standard Electronic Orientation quadrupole field applied
 Nucleus-field energy     =     0.0000000087 hartrees
 Guess from superposition of atomic densities
 Warning:  Energy on first SCF cycle will be non-variational
 SAD guess density has 86.000000 electrons

 -----------------------------------------------------------------------
  General SCF calculation program by
  Eric Jon Sundstrom, Paul Horn, Yuezhi Mao, Dmitri Zuev, Alec White,
  David Stuck, Shaama M.S., Shane Yost, Joonho Lee, David Small,
  Daniel Levine, Susi Lehtola, Hugh Burton, Evgeny Epifanovsky,
  Bang C. Huynh
 -----------------------------------------------------------------------
 Exchange:     0.2000 Hartree-Fock + 0.0800 Slater + 0.7200 B88
 Correlation:  0.1900 VWN1RPA + 0.8100 LYP
 Using SG-1 standard quadrature grid
 A restricted SCF calculation will be
 performed using DIIS
 SCF converges when DIIS error is below 1.0e-05
 ---------------------------------------
  Cycle       Energy         DIIS error
 ---------------------------------------
    1    -604.2738321150      5.76e-02  
    2    -601.3642364563      6.25e-03  
    3    -601.1991926682      8.60e-03  
    4    -601.5433506145      1.52e-03  
    5    -601.5537476478      5.01e-04  
    6    -601.5546408517      2.61e-04  
    7    -601.5549812554      6.03e-05  
    8    -601.5549954311      2.30e-05  
    9    -601.5549975911      6.42e-06  Convergence criterion met
 ---------------------------------------
 SCF time:   CPU 21.12s  wall 21.00s 
 SCF   energy in the final basis set =     -601.5549975911
 Total energy in the final basis set =     -601.5549975911
 
 --------------------------------------------------------------
 
                    Orbital Energies (a.u.)
 --------------------------------------------------------------
 
 Alpha MOs
 -- Occupied --
-24.7526 -24.7418 -14.3268 -10.3654 -10.2278 -10.2227 -10.2155 -10.2117
-10.2074 -10.1997 -10.1895 -10.1862  -1.2936  -1.2325  -0.9531  -0.8400
 -0.8042  -0.7833  -0.7382  -0.6652  -0.6393  -0.6295  -0.5827  -0.5756
 -0.5374  -0.5270  -0.5113  -0.4903  -0.4657  -0.4511  -0.4485  -0.4439
 -0.4298  -0.4144  -0.4134  -0.4077  -0.3765  -0.3578  -0.3353  -0.2909
 -0.2738  -0.2553  -0.2199
 -- Virtual --
 -0.0545  -0.0193   0.0200   0.0845   0.0889   0.1014   0.1257   0.1419
  0.1486   0.1648   0.1769   0.1897   0.1998   0.2204   0.2566   0.2776
  0.3020   0.3382   0.3463   0.3798   0.3887   0.4356   0.4454   0.4875
  0.4884   0.5161   0.5189   0.5235   0.5359   0.5463   0.5653   0.5761
  0.5803   0.5939   0.6101   0.6246   0.6257   0.6546   0.6606   0.6623
  0.6683   0.6875   0.7154   0.7555   0.7669   0.8134   0.8240   0.8340
  0.8612   0.8749   0.8816   0.8821   0.8839   0.9169   0.9489   0.9626
  0.9884   1.0082   1.0171   1.0567   1.0965   1.1227   1.1335   1.1524
  1.1667   1.1994   1.2082   1.2212   1.2453   1.2662   1.2804   1.3053
  1.3424   1.3472   1.3967   1.4062   1.4440   1.4520   1.4595   1.4649
  1.4998   1.5051   1.5203   1.5461   1.6131   1.6332   1.6729   1.6977
  1.7358   1.7737   1.7749   1.7926   1.8182   1.8291   1.8399   1.8651
  1.8692   1.9283   1.9600   1.9687   1.9781   1.9976   2.0064   2.0212
  2.0360   2.0396   2.1154   2.1507   2.1605   2.1614   2.1944   2.2322
  2.2397   2.2628   2.3028   2.3402   2.3441   2.3841   2.3887   2.4827
  2.5093   2.5313   2.5785   2.6127   2.6387   2.6505   2.6669   2.7156
  2.7289   2.8026   2.8399   2.8740   2.9229   2.9630   3.0456   3.1393
  3.1967   3.3135   3.4676   4.0540   4.0709   4.1087   4.1337   4.1828
  4.2435   4.2742   4.3221   4.5110   4.6774   4.7866   5.2810
 --------------------------------------------------------------
 
          Ground-State Mulliken Net Atomic Charges

     Atom                 Charge (a.u.)
  ----------------------------------------
      1 C                    -0.347786
      2 C                    -0.087635
      3 C                     0.296971
      4 C                    -0.171372
      5 C                    -0.159273
      6 C                     0.162359
      7 C                    -0.299759
      8 C                     0.549007
      9 F                    -0.233631
     10 F                    -0.244177
     11 C                    -0.008682
     12 N                    -0.486893
     13 H                     0.150415
     14 H                     0.142869
     15 H                     0.146572
     16 H                     0.136704
     17 H                     0.149635
     18 H                     0.166132
     19 H                     0.138544
  ----------------------------------------
  Sum of atomic charges =     0.000000

 -----------------------------------------------------------------
                    Cartesian Multipole Moments
 -----------------------------------------------------------------
    Charge (ESU x 10^10)
                 0.0000
    Dipole Moment (Debye)
         X      -0.2554      Y      -1.0245      Z       0.0088
       Tot       1.0559
    Quadrupole Moments (Debye-Ang)
        XX     -66.5799     XY      -5.9467     YY     -63.9945
        XZ      -0.0131     YZ      -0.0231     ZZ     -69.1512
    Octopole Moments (Debye-Ang^2)
       XXX     -10.9158    XXY      -9.4553    XYY     -21.4485
       YYY     -12.1639    XXZ      -0.0429    XYZ      -0.1003
       YYZ       0.0697    XZZ     -25.3402    YZZ      -2.8928
       ZZZ      -0.0857
    Hexadecapole Moments (Debye-Ang^3)
      XXXX   -2752.9881   XXXY       0.9236   XXYY    -541.3662
      XYYY      -7.6583   YYYY    -435.1585   XXXZ      -0.1925
      XXYZ      -0.4353   XYYZ       0.0873   YYYZ       0.0565
      XXZZ    -507.6248   XYZZ      14.8917   YYZZ     -90.5072
      XZZZ       0.1394   YZZZ       0.1036   ZZZZ     -65.0803
 -----------------------------------------------------------------
Archival summary:
1\1\nia1977.scinet.local\SP\ProcedureUnspecified\6-31G*\2197\rhickman\MonFeb717:20:062022MonFeb717:20:062022\0\\#,ProcedureUnspecified,6-31G*,\\0,1\F\C,1,1.32735\C,2,1.32557,1,127.81\H,3,1.08052,2,115.507,1,179.944,0\F,2,1.33042,1,108.944,3,179.977,0\C,3,1.45021,2,128.014,1,0.00161353,0\C,6,1.39872,3,124.769,2,-0.464258,0\H,7,1.07854,6,120.861,3,-0.0215592,0\C,7,1.37915,6,119.389,3,179.994,0\H,9,1.078,7,119.904,6,-179.98,0\C,9,1.39899,7,119.538,6,-0.00996269,0\N,11,1.33589,9,120.989,7,-0.0065854,0\C,12,1.31133,11,119.376,9,0.0320476,0\H,13,1.08332,12,115.44,11,179.982,0\C,11,1.45641,9,124.229,7,-179.987,0\H,15,1.08146,11,113.138,9,179.505,0\C,15,1.32785,11,126.486,9,-0.566912,0\H,17,1.07638,15,121.187,11,-179.977,0\H,17,1.07693,15,122.937,11,-0.0121487,0\\\@

 Total job time:  21.34s(wall), 21.26s(cpu) 
 Mon Feb  7 17:20:06 2022

        *************************************************************
        *                                                           *
        *  Thank you very much for using Q-Chem.  Have a nice day.  *
        *                                                           *
        *************************************************************


