
Running Job 1 of 1 fragments/C130/conf-1/spe_input.inp
qchem fragments/C130/conf-1/spe_input.inp_33564.0 /gpfs/fs0/scratch/a/aspuru/rhickman/descriptor_computation/qchem33564/ 0
/scinet/niagara/software/commercial/qc52/exe/qcprog.exe_s fragments/C130/conf-1/spe_input.inp_33564.0 /gpfs/fs0/scratch/a/aspuru/rhickman/descriptor_computation/qchem33564/
                  Welcome to Q-Chem
     A Quantum Leap Into The Future Of Chemistry


 Q-Chem 5.2, Q-Chem, Inc., Pleasanton, CA (2019)

 License issued to: SRG Alan Aspuru-Guzik, University of Toronto

 Yihan Shao,  Zhengting Gan,  E. Epifanovsky,  A. T. B. Gilbert,  M. Wormit,  
 J. Kussmann,  A. W. Lange,  A. Behn,  Jia Deng,  Xintian Feng,  D. Ghosh,  
 M. Goldey,  P. R. Horn,  L. D. Jacobson,  I. Kaliman,  T. Kus,  A. Landau,  
 Jie Liu,  E. I. Proynov,  R. M. Richard,  R. P. Steele,  E. J. Sundstrom,  
 H. L. Woodcock III,  P. M. Zimmerman,  D. Zuev,  B. Albrecht,  E. Alguire,  
 S. A. Baeppler,  D. Barton,  Z. Benda,  Y. A. Bernard,  E. J. Berquist,  
 K. B. Bravaya,  H. Burton,  D. Casanova,  Chun-Min Chang,  Yunqing Chen,  
 A. Chien,  K. D. Closser,  M. P. Coons,  S. Coriani,  S. Dasgupta,  
 A. L. Dempwolff,  M. Diedenhofen,  Hainam Do,  R. G. Edgar,  Po-Tung Fang,  
 S. Faraji,  S. Fatehi,  Qingguo Feng,  K. D. Fenk,  J. Fosso-Tande,  
 J. Gayvert,  Qinghui Ge,  A. Ghysels,  G. Gidofalvi,  J. Gomes,  
 J. Gonthier,  A. Gunina,  D. Hait,  M. W. D. Hanson-Heine,  
 P. H. P. Harbach,  A. W. Hauser,  M. F. Herbst,  J. E. Herr,  
 E. G. Hohenstein,  Z. C. Holden,  Kerwin Hui,  B. C. Huynh,  T.-C. Jagau,  
 Hyunjun Ji,  B. Kaduk,  K. Khistyaev,  Jaehoon Kim,  P. Klunzinger,  K. Koh,  
 D. Kosenkov,  L. Koulias,  T. Kowalczyk,  C. M. Krauter,  A. Kunitsa,  
 Ka Un Lao,  A. Laurent,  K. V. Lawler,  Joonho Lee,  D. Lefrancois,  
 S. Lehtola,  D. S. Levine,  Yi-Pei Li,  You-Sheng Lin,  Fenglai Liu,  
 E. Livshits,  A. Luenser,  P. Manohar,  E. Mansoor,  S. F. Manzer,  
 Shan-Ping Mao,  Yuezhi Mao,  N. Mardirossian,  A. V. Marenich,  
 T. Markovich,  L. A. Martinez-Martinez,  S. A. Maurer,  N. J. Mayhall,  
 S. C. McKenzie,  J.-M. Mewes,  P. Morgante,  A. F. Morrison,  
 J. W. Mullinax,  K. Nanda,  T. S. Nguyen-Beck,  R. Olivares-Amaya,  
 J. A. Parkhill,  Zheng Pei,  T. M. Perrine,  F. Plasser,  P. Pokhilko,  
 S. Prager,  A. Prociuk,  E. Ramos,  D. R. Rehn,  F. Rob,  M. Scheurer,  
 M. Schneider,  N. Sergueev,  S. M. Sharada,  S. Sharma,  D. W. Small,  
 T. Stauch,  T. Stein,  Yu-Chuan Su,  A. J. W. Thom,  A. Tkatchenko,  
 T. Tsuchimochi,  N. M. Tubman,  L. Vogt,  M. L. Vidal,  O. Vydrov,  
 M. A. Watson,  J. Wenzel,  M. de Wergifosse,  T. A. Wesolowski,  A. White,  
 J. Witte,  A. Yamada,  Jun Yang,  K. Yao,  S. Yeganeh,  S. R. Yost,  
 Zhi-Qiang You,  A. Zech,  Igor Ying Zhang,  Xing Zhang,  Yan Zhao,  
 Ying Zhu,  B. R. Brooks,  G. K. L. Chan,  C. J. Cramer,  M. S. Gordon,  
 W. J. Hehre,  A. Klamt,  M. W. Schmidt,  C. D. Sherrill,  D. G. Truhlar,  
 A. Aspuru-Guzik,  R. Baer,  A. T. Bell,  N. A. Besley,  Jeng-Da Chai,  
 A. E. DePrince, III,  R. A. DiStasio Jr.,  A. Dreuw,  B. D. Dunietz,  
 T. R. Furlani,  Chao-Ping Hsu,  Yousung Jung,  Jing Kong,  D. S. Lambrecht,  
 WanZhen Liang,  C. Ochsenfeld,  V. A. Rassolov,  L. V. Slipchenko,  
 J. E. Subotnik,  T. Van Voorhis,  J. M. Herbert,  A. I. Krylov,  
 P. M. W. Gill,  M. Head-Gordon

 Contributors to earlier versions of Q-Chem not listed above: 
 R. D. Adamson,  B. Austin,  J. Baker,  G. J. O. Beran,  K. Brandhorst,  
 S. T. Brown,  E. F. C. Byrd,  A. K. Chakraborty,  C.-L. Cheng,  
 Siu Hung Chien,  D. M. Chipman,  D. L. Crittenden,  H. Dachsel,  
 R. J. Doerksen,  A. D. Dutoi,  L. Fusti-Molnar,  W. A. Goddard III,  
 A. Golubeva-Zadorozhnaya,  S. R. Gwaltney,  G. Hawkins,  A. Heyden,  
 S. Hirata,  G. Kedziora,  F. J. Keil,  C. Kelley,  Jihan Kim,  R. A. King,  
 R. Z. Khaliullin,  P. P. Korambath,  W. Kurlancheek,  A. M. Lee,  M. S. Lee,  
 S. V. Levchenko,  Ching Yeh Lin,  D. Liotard,  R. C. Lochan,  I. Lotan,  
 P. E. Maslen,  N. Nair,  D. P. O'Neill,  D. Neuhauser,  E. Neuscamman,  
 C. M. Oana,  R. Olson,  B. Peters,  R. Peverati,  P. A. Pieniazek,  
 Y. M. Rhee,  J. Ritchie,  M. A. Rohrdanz,  E. Rosta,  N. J. Russ,  
 H. F. Schaefer III,  N. E. Schultz,  N. Shenvi,  A. C. Simmonett,  A. Sodt,  
 D. Stuck,  K. S. Thanthiriwatte,  V. Vanovschi,  Tao Wang,  A. Warshel,  
 C. F. Williams,  Q. Wu,  X. Xu,  W. Zhang

 Please cite Q-Chem as follows:
 Y. Shao et al., Mol. Phys. 113, 184-215 (2015)
 DOI: 10.1080/00268976.2014.952696

 Q-Chem 5.2.1 for Intel X86 EM64T Linux

 Parts of Q-Chem use Armadillo 8.300.2 (Tropical Shenanigans).
 http://arma.sourceforge.net/

 Q-Chem begins on Mon Feb  7 12:51:31 2022  

Host: 
0

     Scratch files written to /gpfs/fs0/scratch/a/aspuru/rhickman/descriptor_computation/qchem33564//
 Jul1719 |scratch|qcdevops|jenkins|workspace|build_RNUM -1
Processing $rem in /scinet/niagara/software/commercial/qc52/config/preferences:
	 MEM_TOTAL  4000 
NAlpha2: 180
NElect   180
Mult     1

Checking the input file for inconsistencies... 	...done.

--------------------------------------------------------------
User input:
--------------------------------------------------------------
$molecule
0 1
C        -5.66015046500000   -2.29345245950000    1.41865275000000
C        -5.38016660820000   -1.55761718480000    0.34882308080000
C        -4.08280482180000   -1.01156516320000   -0.01821698900000
C        -3.97119728500000   -0.21402658810000   -1.15723122500000
C        -2.76348341520000    0.33105163510000   -1.54256537870000
C        -1.60673901980000    0.12504576840000   -0.78985063790000
C        -1.71782240000000   -0.68572028100000    0.34414369180000
C        -2.92076296700000   -1.24758195330000    0.71763217640000
S        -0.30621608930000   -0.95950638020000    1.38264904290000
C         0.96817745030000   -0.84702077040000    0.15186372140000
C         2.14118893930000   -1.54157970450000    0.36221466390000
C         3.20492398370000   -1.44204036840000   -0.53508469750000
C         4.47414080270000   -2.12616951270000   -0.34249373070000
C         4.81796583740000   -2.89016320040000    0.68823948180000
C         3.01966227570000   -0.64539671580000   -1.66533262730000
C         1.83988741770000    0.03572311330000   -1.88372510100000
C         0.78927036560000   -0.02958977780000   -0.96772232660000
N        -0.38953943550000    0.68437924430000   -1.16127367920000
C        -0.35154784770000    1.96345534240000   -1.83922162840000
C         0.67173120900000    2.89831824450000   -1.18516267590000
C         0.35960483560000    3.13932306790000    0.29193407470000
C         1.54139187180000    3.75824307970000    1.04002828180000
C         2.65543498300000    2.75758567460000    1.35968878680000
C         2.29445345260000    1.81249871430000    2.49939690910000
H        -6.65810462270000   -2.65134053470000    1.60471530010000
H        -4.91843858670000   -2.56685004730000    2.14897468780000
H        -6.17787423550000   -1.31534048660000   -0.34335482020000
H        -4.84806071020000   -0.02266749510000   -1.75902347500000
H        -2.71554183700000    0.91916464860000   -2.44618136540000
H        -2.94561193110000   -1.85645016500000    1.60711351250000
H         2.22466275550000   -2.14448466930000    1.25204664010000
H         5.18987497060000   -1.97174494880000   -1.14132989520000
H         4.15885787700000   -3.08288376930000    1.51690407280000
H         5.78731876050000   -3.35533190120000    0.73976305200000
H         3.81681339120000   -0.55854318630000   -2.38990894610000
H         1.73133579230000    0.62626199600000   -2.77994789950000
H        -1.34058013190000    2.41454118660000   -1.74138892850000
H        -0.13197995320000    1.85051593100000   -2.90917740100000
H         0.66651418640000    3.84728228410000   -1.72528928980000
H         1.66897898390000    2.46915847340000   -1.27926466180000
H         0.09315136940000    2.19534666260000    0.76787437770000
H        -0.50738855750000    3.79970706820000    0.37038125970000
H         1.18459027990000    4.18900162370000    1.97808318670000
H         1.94956922130000    4.57404262530000    0.43796292120000
H         3.55414503720000    3.31353546880000    1.63746333380000
H         2.89764966330000    2.16941008630000    0.47215828310000
H         2.09129176330000    2.37273015380000    3.40970519970000
H         3.11591066370000    1.12640277060000    2.69286216440000
H         1.41561646650000    1.22064132910000    2.25975005410000
$end

$rem
BASIS = 6-31G*
GUI = 2
METHOD = B3LYP
PRINT_ORBITALS false
MOLDEN_FORMAT false
--------------------------------------------------------------
 ----------------------------------------------------------------
             Standard Nuclear Orientation (Angstroms)
    I     Atom           X                Y                Z
 ----------------------------------------------------------------
    1      C      -5.9665433073    -1.6176199097     1.2801696822
    2      C      -5.5869122700    -0.8259189856     0.2834400524
    3      C      -4.2252652025    -0.4404852394    -0.0533045378
    4      C      -4.0034608083     0.4434923090    -1.1093651210
    5      C      -2.7307233182     0.8428893604    -1.4626167980
    6      C      -1.6129861244     0.3952837484    -0.7573592024
    7      C      -1.8362429675    -0.5012791238     0.2923815476
    8      C      -3.1067880423    -0.9166890175     0.6320843996
    9      S      -0.4749132928    -1.0816901872     1.2701284899
   10      C       0.7958142417    -1.0320968471     0.0314370644
   11      C       1.8550091396    -1.9079297610     0.1482208839
   12      C       2.9171841017    -1.8741480645    -0.7557866465
   13      C       4.0729794795    -2.7519423357    -0.6575544613
   14      C       4.3060260088    -3.6583309341     0.2850281550
   15      C       2.8452638681    -0.9486626310    -1.7972892076
   16      C       1.7773616365    -0.0842548888    -1.9232744792
   17      C       0.7332910689    -0.0881605493    -0.9975183331
   18      N      -0.3286983551     0.8059177513    -1.0955432973
   19      C      -0.1065264930     2.1278135224    -1.6435612544
   20      C       1.0464511245     2.8324070444    -0.9203376586
   21      C       0.7807652615     2.9654643297     0.5793382362
   22      C       2.0445514180     3.3265007535     1.3615305232
   23      C       3.0009717039     2.1469545700     1.5577986363
   24      C       2.5108145280     1.1540545467     2.6048550430
   25      H      -7.0053042675    -1.8431927898     1.4496045992
   26      H      -5.2693464934    -2.0687766974     1.9647330757
   27      H      -6.3438752357    -0.4010897209    -0.3651529388
   28      H      -4.8457399963     0.8205961837    -1.6715217880
   29      H      -2.6014754215     1.5062040176    -2.3040476090
   30      H      -3.2163194141    -1.6023638539     1.4569285757
   31      H       1.8535002600    -2.6035624932     0.9718446120
   32      H       4.7995187592    -2.6233904314    -1.4512021450
   33      H       3.6300188850    -3.8358468417     1.1034119260
   34      H       5.1966923436    -4.2626398695     0.2706796850
   35      H       3.6427801690    -0.9059993542    -2.5254044959
   36      H       1.7522143567     0.6035112622    -2.7539851796
   37      H      -1.0179599233     2.7060031940    -1.4816342923
   38      H       0.0885359318     2.0930397679    -2.7236131803
   39      H       1.1780522793     3.8217718671    -1.3632090942
   40      H       1.9692539936     2.2742196984    -1.0765367914
   41      H       0.3808534111     2.0271127806     0.9642732405
   42      H       0.0207192819     3.7338013680     0.7403563623
   43      H       1.7598041454     3.7074123095     2.3447053201
   44      H       2.5651473412     4.1308267769     0.8355458482
   45      H       3.9730809794     2.5349272706     1.8714853815
   46      H       3.1494916572     1.6227122995     0.6115213333
   47      H       2.3969306870     1.6427962130     3.5702343343
   48      H       3.2234389379     0.3395089916     2.7126993180
   49      H       1.5532782196     0.7239854059     2.3251320017
 ----------------------------------------------------------------
 Molecular Point Group                 C1    NOp =  1
 Largest Abelian Subgroup              C1    NOp =  1
 Nuclear Repulsion Energy =        2195.07633965 hartrees
 There are       90 alpha and       90 beta electrons
 Requested basis set is 6-31G(d)
 There are 147 shells and 414 basis functions

 Total QAlloc Memory Limit   4000 MB
 Mega-Array Size       188 MB
 MEM_STATIC part       192 MB
 A cutoff of  1.0D-08 yielded   5354 shell pairs
 There are     45976 function pairs
 Smallest overlap matrix eigenvalue = 3.34E-04

 Scale SEOQF with 1.000000e-02/1.000000e-01/1.000000e-01

 Standard Electronic Orientation quadrupole field applied
 Nucleus-field energy     =     0.0000000178 hartrees
 Guess from superposition of atomic densities
 Warning:  Energy on first SCF cycle will be non-variational
 SAD guess density has 180.000000 electrons

 -----------------------------------------------------------------------
  General SCF calculation program by
  Eric Jon Sundstrom, Paul Horn, Yuezhi Mao, Dmitri Zuev, Alec White,
  David Stuck, Shaama M.S., Shane Yost, Joonho Lee, David Small,
  Daniel Levine, Susi Lehtola, Hugh Burton, Evgeny Epifanovsky,
  Bang C. Huynh
 -----------------------------------------------------------------------
 Exchange:     0.2000 Hartree-Fock + 0.0800 Slater + 0.7200 B88
 Correlation:  0.1900 VWN1RPA + 0.8100 LYP
 Using SG-1 standard quadrature grid
 A restricted SCF calculation will be
 performed using DIIS
 SCF converges when DIIS error is below 1.0e-05
 ---------------------------------------
  Cycle       Energy         DIIS error
 ---------------------------------------
    1   -1312.1138991591      3.99e-02  
    2   -1305.9104010452      4.07e-03  
    3   -1305.7810425308      4.72e-03  
    4   -1306.2603326795      1.35e-03  
    5   -1306.2997331021      4.41e-04  
    6   -1306.3039739854      1.08e-04  
    7   -1306.3042262163      4.09e-05  
    8   -1306.3042613751      1.58e-05  
    9   -1306.3042670983      3.24e-06  Convergence criterion met
 ---------------------------------------
 SCF time:   CPU 161.58s  wall 162.00s 
 SCF   energy in the final basis set =    -1306.3042670983
 Total energy in the final basis set =    -1306.3042670983
 
 --------------------------------------------------------------
 
                    Orbital Energies (a.u.)
 --------------------------------------------------------------
 
 Alpha MOs
 -- Occupied --
-88.8895 -14.3672 -10.2356 -10.2353 -10.2258 -10.2204 -10.2191 -10.1941
-10.1923 -10.1921 -10.1917 -10.1911 -10.1902 -10.1899 -10.1890 -10.1886
-10.1877 -10.1811 -10.1771 -10.1757 -10.1701 -10.1688 -10.1669 -10.1560
 -7.9501  -5.9151  -5.9115  -5.9053  -0.9804  -0.8719  -0.8679  -0.8188
 -0.8039  -0.7983  -0.7770  -0.7638  -0.7579  -0.7361  -0.7216  -0.7081
 -0.6845  -0.6549  -0.6403  -0.6184  -0.6147  -0.5918  -0.5875  -0.5675
 -0.5548  -0.5454  -0.5423  -0.5156  -0.4879  -0.4867  -0.4733  -0.4659
 -0.4619  -0.4525  -0.4488  -0.4441  -0.4362  -0.4327  -0.4238  -0.4148
 -0.4122  -0.4046  -0.4025  -0.3955  -0.3838  -0.3798  -0.3773  -0.3717
 -0.3559  -0.3549  -0.3510  -0.3499  -0.3458  -0.3391  -0.3362  -0.3220
 -0.3114  -0.3091  -0.3083  -0.3019  -0.2982  -0.2629  -0.2602  -0.2248
 -0.2191  -0.1794
 -- Virtual --
 -0.0353  -0.0241  -0.0065  -0.0009   0.0329   0.0602   0.0668   0.0795
  0.0957   0.1007   0.1067   0.1125   0.1193   0.1207   0.1256   0.1318
  0.1385   0.1399   0.1509   0.1557   0.1578   0.1627   0.1696   0.1724
  0.1761   0.1821   0.1878   0.1930   0.1993   0.2076   0.2096   0.2104
  0.2199   0.2255   0.2305   0.2347   0.2434   0.2461   0.2538   0.2641
  0.2690   0.2767   0.2856   0.3003   0.3023   0.3105   0.3131   0.3194
  0.3271   0.3505   0.3532   0.3624   0.3742   0.3927   0.4080   0.4153
  0.4432   0.4474   0.4526   0.4609   0.4798   0.4847   0.5033   0.5104
  0.5193   0.5242   0.5303   0.5379   0.5401   0.5511   0.5523   0.5558
  0.5629   0.5654   0.5662   0.5774   0.5841   0.5857   0.5895   0.5945
  0.5971   0.5983   0.6036   0.6131   0.6168   0.6219   0.6291   0.6342
  0.6358   0.6425   0.6475   0.6571   0.6596   0.6722   0.6799   0.6854
  0.6927   0.6941   0.7033   0.7133   0.7197   0.7204   0.7294   0.7429
  0.7505   0.7744   0.7769   0.7878   0.7992   0.8087   0.8175   0.8268
  0.8324   0.8369   0.8395   0.8507   0.8571   0.8616   0.8713   0.8832
  0.8876   0.8884   0.8924   0.8935   0.8972   0.8993   0.9112   0.9150
  0.9275   0.9338   0.9426   0.9433   0.9536   0.9611   0.9682   0.9737
  0.9804   0.9817   0.9869   0.9906   0.9970   0.9998   1.0063   1.0076
  1.0248   1.0358   1.0429   1.0547   1.0608   1.0614   1.0765   1.0878
  1.0914   1.1090   1.1200   1.1311   1.1434   1.1530   1.1658   1.1803
  1.1918   1.2074   1.2180   1.2298   1.2504   1.2701   1.2770   1.2987
  1.3064   1.3143   1.3225   1.3253   1.3301   1.3542   1.3789   1.3802
  1.4297   1.4476   1.4520   1.4560   1.4606   1.4724   1.4750   1.4792
  1.4849   1.4971   1.5073   1.5150   1.5216   1.5318   1.5531   1.5741
  1.5810   1.5990   1.6385   1.6506   1.6701   1.6788   1.6797   1.6856
  1.7050   1.7149   1.7539   1.7815   1.7988   1.8027   1.8064   1.8229
  1.8290   1.8610   1.8706   1.8775   1.8846   1.8927   1.9052   1.9103
  1.9184   1.9334   1.9418   1.9659   1.9681   1.9757   1.9908   1.9934
  2.0008   2.0092   2.0215   2.0256   2.0354   2.0474   2.0594   2.0720
  2.0851   2.0917   2.1058   2.1256   2.1341   2.1406   2.1482   2.1494
  2.1584   2.1669   2.1816   2.1983   2.2175   2.2397   2.2494   2.2508
  2.2650   2.2712   2.2761   2.3030   2.3132   2.3190   2.3227   2.3286
  2.3537   2.3607   2.3869   2.3917   2.3928   2.4180   2.4565   2.4663
  2.4799   2.5005   2.5235   2.5266   2.5365   2.5512   2.5718   2.5991
  2.6056   2.6261   2.6304   2.6417   2.6511   2.6564   2.6804   2.6907
  2.6945   2.7151   2.7231   2.7396   2.7570   2.7941   2.8054   2.8226
  2.8652   2.8764   2.9000   2.9384   2.9613   2.9882   3.0692   3.1263
  3.2133   3.2755   3.4247   3.4588   3.9826   4.0945   4.0957   4.1199
  4.1278   4.1331   4.1392   4.1606   4.1738   4.1913   4.2134   4.2636
  4.2760   4.2861   4.3430   4.3647   4.3927   4.4486   4.4936   4.5151
  4.5400   4.6039   4.7494   4.7903
 --------------------------------------------------------------
 
          Ground-State Mulliken Net Atomic Charges

     Atom                 Charge (a.u.)
  ----------------------------------------
      1 C                    -0.355866
      2 C                    -0.116665
      3 C                     0.200015
      4 C                    -0.215845
      5 C                    -0.164202
      6 C                     0.314305
      7 C                    -0.110055
      8 C                    -0.250216
      9 S                     0.162602
     10 C                    -0.110924
     11 C                    -0.248212
     12 C                     0.201185
     13 C                    -0.117260
     14 C                    -0.354806
     15 C                    -0.216839
     16 C                    -0.165549
     17 C                     0.313137
     18 N                    -0.578461
     19 C                    -0.156034
     20 C                    -0.287009
     21 C                    -0.267538
     22 C                    -0.251851
     23 C                    -0.258144
     24 C                    -0.459208
     25 H                     0.142638
     26 H                     0.142134
     27 H                     0.124758
     28 H                     0.128716
     29 H                     0.135673
     30 H                     0.141519
     31 H                     0.142617
     32 H                     0.125377
     33 H                     0.142765
     34 H                     0.143404
     35 H                     0.129908
     36 H                     0.135017
     37 H                     0.160630
     38 H                     0.141416
     39 H                     0.135952
     40 H                     0.157594
     41 H                     0.167996
     42 H                     0.126351
     43 H                     0.127897
     44 H                     0.122509
     45 H                     0.127188
     46 H                     0.141408
     47 H                     0.135922
     48 H                     0.140275
     49 H                     0.173777
  ----------------------------------------
  Sum of atomic charges =     0.000000

 -----------------------------------------------------------------
                    Cartesian Multipole Moments
 -----------------------------------------------------------------
    Charge (ESU x 10^10)
                 0.0000
    Dipole Moment (Debye)
         X       0.2077      Y       1.4631      Z      -1.7673
       Tot       2.3037
    Quadrupole Moments (Debye-Ang)
        XX    -143.3175     XY      -3.2253     YY    -148.4591
        XZ      -1.5662     YZ      -7.8737     ZZ    -146.7538
    Octopole Moments (Debye-Ang^2)
       XXX     -23.3713    XXY     -15.5436    XYY      10.7733
       YYY      16.6848    XXZ     -20.0212    XYZ      11.8252
       YYZ       6.7845    XZZ       4.1217    YZZ       7.6016
       ZZZ     -10.6799
    Hexadecapole Moments (Debye-Ang^3)
      XXXX   -7389.0007   XXXY     -63.3409   XXYY   -1797.1604
      XYYY     -48.2086   YYYY   -3243.7421   XXXZ     -37.6346
      XXYZ     -69.8825   XYYZ      10.2555   YYYZ     -71.5788
      XXZZ   -1519.4210   XYZZ       1.6940   YYZZ    -789.6772
      XZZZ     -20.6806   YZZZ     -31.9290   ZZZZ   -1608.8087
 -----------------------------------------------------------------
Archival summary:
1\1\nia1977.scinet.local\SP\ProcedureUnspecified\6-31G*\112225\rhickman\MonFeb712:54:132022MonFeb712:54:132022\0\\#,ProcedureUnspecified,6-31G*,\\0,1\S\C,1,1.77372\C,2,1.37922,1,118.209\H,3,1.0782,2,118.265,1,-1.99481,0\C,3,1.39554,2,120.969,1,176.61,0\C,5,1.39495,3,117.427,2,1.4372,0\H,6,1.08058,5,119.41,3,179.095,0\C,6,1.37992,5,121.593,3,-0.418947,0\H,8,1.07921,6,119.206,5,178.267,0\C,8,1.39538,6,121.103,5,-1.22914,0\N,10,1.3901,8,121.489,6,-179.167,0\C,11,1.39169,10,119.874,8,-143.288,0\C,12,1.39539,11,121.496,10,143.36,0\H,13,1.07877,12,119.685,11,-1.96238,0\C,13,1.37967,12,121.119,11,178.145,0\H,15,1.08074,13,119.008,12,-179.065,0\C,15,1.39514,13,121.58,12,1.01987,0\C,17,1.3952,15,117.42,13,0.914787,0\H,18,1.07808,17,120.777,15,179.845,0\C,18,1.37935,17,120.955,15,-1.73417,0\C,11,1.44813,10,120.229,8,32.0978,0\H,21,1.09144,11,107.416,10,13.4489,0\H,21,1.09808,11,111.75,10,-104.984,0\C,17,1.45466,15,119.45,13,-179.216,0\H,24,1.08363,17,114.31,15,-1.53768,0\C,24,1.32827,17,126.805,15,178.294,0\H,26,1.07622,24,122.818,17,-0.059863,0\H,26,1.07642,24,121.252,17,-179.959,0\C,5,1.45466,3,123.101,2,-178.703,0\H,29,1.08358,5,114.297,3,-177.778,0\C,29,1.3283,5,126.81,3,2.48305,0\H,31,1.07622,29,122.821,5,0.0491847,0\H,31,1.07639,29,121.254,5,179.892,0\C,21,1.5326,11,110.885,10,131.657,0\H,34,1.08974,21,109.507,11,62.807,0\H,34,1.09192,21,108.411,11,-179.952,0\C,34,1.52883,21,111.849,11,-58.6542,0\H,37,1.09023,34,109.584,21,43.931,0\H,37,1.09267,34,109.064,21,-73.3035,0\C,37,1.52949,34,112.247,21,165.197,0\H,40,1.09216,37,109.104,34,162.652,0\H,40,1.09299,37,108.733,34,45.6815,0\C,40,1.53121,37,113.567,34,-76.2784,0\H,43,1.09194,40,110.104,37,47.4959,0\H,43,1.09267,40,108.601,37,164.773,0\C,43,1.52395,40,112.896,37,-74.6343,0\H,46,1.08631,43,111.379,40,60.6521,0\H,46,1.08763,43,110.202,40,-179.688,0\H,46,1.08802,43,110.525,40,-59.7902,0\\\@

 Total job time:  162.47s(wall), 162.04s(cpu) 
 Mon Feb  7 12:54:13 2022

        *************************************************************
        *                                                           *
        *  Thank you very much for using Q-Chem.  Have a nice day.  *
        *                                                           *
        *************************************************************


