26
 energy: -36.718452752316 gnorm: 0.000073448250 xtb: 6.4.1 (23d549d)
C         4.04578306550000    0.50102385920000   -0.28035233410000
C         2.95476702920000    0.81113545570000    0.40721470930000
C         1.60058992000000    0.30763728450000    0.19501115920000
C         0.53791171490000    1.18325534230000    0.41569943650000
C        -0.78440653310000    0.80940309600000    0.21719000260000
C        -1.82543225140000    1.83073708150000    0.27719576220000
C        -2.84234760780000    1.91961372600000   -0.57304499860000
C        -1.00016069730000   -0.55173654920000   -0.09035770190000
N        -2.23917693320000   -1.13885218610000   -0.19225132830000
N        -3.33927395180000   -0.78314796610000    0.60943370400000
N         0.00967085730000   -1.39255328190000   -0.29688361960000
C         1.26745662460000   -0.99796524500000   -0.20329452370000
C         2.27851161430000   -2.06837343770000   -0.47191708020000
H         4.99516001350000    0.95409534460000   -0.04808472580000
H         4.03839879920000   -0.18152804050000   -1.11068154250000
H         3.02855819990000    1.55440276740000    1.19399170710000
H         0.75038156200000    2.20625177230000    0.69866430280000
H        -1.68798959050000    2.59185882300000    1.03666840880000
H        -2.95991502790000    1.22430338260000   -1.38887317260000
H        -3.56232954740000    2.71825392590000   -0.51147012550000
H        -2.16890636350000   -2.14340859930000   -0.31632056890000
H        -3.85494921480000   -0.02087013220000    0.16697985500000
H        -3.03142739170000   -0.44925568050000    1.52315014900000
H         1.80352478550000   -3.03779695690000   -0.34637417750000
H         3.12866427730000   -1.97979455610000    0.20006590600000
H         2.63581835090000   -1.99986537170000   -1.49849838570000
