
Running Job 1 of 1 fragments/C159/conf-2/spe_input.inp
qchem fragments/C159/conf-2/spe_input.inp_273792.0 /gpfs/fs0/scratch/a/aspuru/rhickman/descriptor_computation/qchem273792/ 0
/scinet/niagara/software/commercial/qc52/exe/qcprog.exe_s fragments/C159/conf-2/spe_input.inp_273792.0 /gpfs/fs0/scratch/a/aspuru/rhickman/descriptor_computation/qchem273792/
                  Welcome to Q-Chem
     A Quantum Leap Into The Future Of Chemistry


 Q-Chem 5.2, Q-Chem, Inc., Pleasanton, CA (2019)

 License issued to: SRG Alan Aspuru-Guzik, University of Toronto

 Yihan Shao,  Zhengting Gan,  E. Epifanovsky,  A. T. B. Gilbert,  M. Wormit,  
 J. Kussmann,  A. W. Lange,  A. Behn,  Jia Deng,  Xintian Feng,  D. Ghosh,  
 M. Goldey,  P. R. Horn,  L. D. Jacobson,  I. Kaliman,  T. Kus,  A. Landau,  
 Jie Liu,  E. I. Proynov,  R. M. Richard,  R. P. Steele,  E. J. Sundstrom,  
 H. L. Woodcock III,  P. M. Zimmerman,  D. Zuev,  B. Albrecht,  E. Alguire,  
 S. A. Baeppler,  D. Barton,  Z. Benda,  Y. A. Bernard,  E. J. Berquist,  
 K. B. Bravaya,  H. Burton,  D. Casanova,  Chun-Min Chang,  Yunqing Chen,  
 A. Chien,  K. D. Closser,  M. P. Coons,  S. Coriani,  S. Dasgupta,  
 A. L. Dempwolff,  M. Diedenhofen,  Hainam Do,  R. G. Edgar,  Po-Tung Fang,  
 S. Faraji,  S. Fatehi,  Qingguo Feng,  K. D. Fenk,  J. Fosso-Tande,  
 J. Gayvert,  Qinghui Ge,  A. Ghysels,  G. Gidofalvi,  J. Gomes,  
 J. Gonthier,  A. Gunina,  D. Hait,  M. W. D. Hanson-Heine,  
 P. H. P. Harbach,  A. W. Hauser,  M. F. Herbst,  J. E. Herr,  
 E. G. Hohenstein,  Z. C. Holden,  Kerwin Hui,  B. C. Huynh,  T.-C. Jagau,  
 Hyunjun Ji,  B. Kaduk,  K. Khistyaev,  Jaehoon Kim,  P. Klunzinger,  K. Koh,  
 D. Kosenkov,  L. Koulias,  T. Kowalczyk,  C. M. Krauter,  A. Kunitsa,  
 Ka Un Lao,  A. Laurent,  K. V. Lawler,  Joonho Lee,  D. Lefrancois,  
 S. Lehtola,  D. S. Levine,  Yi-Pei Li,  You-Sheng Lin,  Fenglai Liu,  
 E. Livshits,  A. Luenser,  P. Manohar,  E. Mansoor,  S. F. Manzer,  
 Shan-Ping Mao,  Yuezhi Mao,  N. Mardirossian,  A. V. Marenich,  
 T. Markovich,  L. A. Martinez-Martinez,  S. A. Maurer,  N. J. Mayhall,  
 S. C. McKenzie,  J.-M. Mewes,  P. Morgante,  A. F. Morrison,  
 J. W. Mullinax,  K. Nanda,  T. S. Nguyen-Beck,  R. Olivares-Amaya,  
 J. A. Parkhill,  Zheng Pei,  T. M. Perrine,  F. Plasser,  P. Pokhilko,  
 S. Prager,  A. Prociuk,  E. Ramos,  D. R. Rehn,  F. Rob,  M. Scheurer,  
 M. Schneider,  N. Sergueev,  S. M. Sharada,  S. Sharma,  D. W. Small,  
 T. Stauch,  T. Stein,  Yu-Chuan Su,  A. J. W. Thom,  A. Tkatchenko,  
 T. Tsuchimochi,  N. M. Tubman,  L. Vogt,  M. L. Vidal,  O. Vydrov,  
 M. A. Watson,  J. Wenzel,  M. de Wergifosse,  T. A. Wesolowski,  A. White,  
 J. Witte,  A. Yamada,  Jun Yang,  K. Yao,  S. Yeganeh,  S. R. Yost,  
 Zhi-Qiang You,  A. Zech,  Igor Ying Zhang,  Xing Zhang,  Yan Zhao,  
 Ying Zhu,  B. R. Brooks,  G. K. L. Chan,  C. J. Cramer,  M. S. Gordon,  
 W. J. Hehre,  A. Klamt,  M. W. Schmidt,  C. D. Sherrill,  D. G. Truhlar,  
 A. Aspuru-Guzik,  R. Baer,  A. T. Bell,  N. A. Besley,  Jeng-Da Chai,  
 A. E. DePrince, III,  R. A. DiStasio Jr.,  A. Dreuw,  B. D. Dunietz,  
 T. R. Furlani,  Chao-Ping Hsu,  Yousung Jung,  Jing Kong,  D. S. Lambrecht,  
 WanZhen Liang,  C. Ochsenfeld,  V. A. Rassolov,  L. V. Slipchenko,  
 J. E. Subotnik,  T. Van Voorhis,  J. M. Herbert,  A. I. Krylov,  
 P. M. W. Gill,  M. Head-Gordon

 Contributors to earlier versions of Q-Chem not listed above: 
 R. D. Adamson,  B. Austin,  J. Baker,  G. J. O. Beran,  K. Brandhorst,  
 S. T. Brown,  E. F. C. Byrd,  A. K. Chakraborty,  C.-L. Cheng,  
 Siu Hung Chien,  D. M. Chipman,  D. L. Crittenden,  H. Dachsel,  
 R. J. Doerksen,  A. D. Dutoi,  L. Fusti-Molnar,  W. A. Goddard III,  
 A. Golubeva-Zadorozhnaya,  S. R. Gwaltney,  G. Hawkins,  A. Heyden,  
 S. Hirata,  G. Kedziora,  F. J. Keil,  C. Kelley,  Jihan Kim,  R. A. King,  
 R. Z. Khaliullin,  P. P. Korambath,  W. Kurlancheek,  A. M. Lee,  M. S. Lee,  
 S. V. Levchenko,  Ching Yeh Lin,  D. Liotard,  R. C. Lochan,  I. Lotan,  
 P. E. Maslen,  N. Nair,  D. P. O'Neill,  D. Neuhauser,  E. Neuscamman,  
 C. M. Oana,  R. Olson,  B. Peters,  R. Peverati,  P. A. Pieniazek,  
 Y. M. Rhee,  J. Ritchie,  M. A. Rohrdanz,  E. Rosta,  N. J. Russ,  
 H. F. Schaefer III,  N. E. Schultz,  N. Shenvi,  A. C. Simmonett,  A. Sodt,  
 D. Stuck,  K. S. Thanthiriwatte,  V. Vanovschi,  Tao Wang,  A. Warshel,  
 C. F. Williams,  Q. Wu,  X. Xu,  W. Zhang

 Please cite Q-Chem as follows:
 Y. Shao et al., Mol. Phys. 113, 184-215 (2015)
 DOI: 10.1080/00268976.2014.952696

 Q-Chem 5.2.1 for Intel X86 EM64T Linux

 Parts of Q-Chem use Armadillo 8.300.2 (Tropical Shenanigans).
 http://arma.sourceforge.net/

 Q-Chem begins on Mon Feb  7 10:00:00 2022  

Host: 
0

     Scratch files written to /gpfs/fs0/scratch/a/aspuru/rhickman/descriptor_computation/qchem273792//
 Jul1719 |scratch|qcdevops|jenkins|workspace|build_RNUM -1
Processing $rem in /scinet/niagara/software/commercial/qc52/config/preferences:
	 MEM_TOTAL  4000 
NAlpha2: 100
NElect   100
Mult     1

Checking the input file for inconsistencies... 	...done.

--------------------------------------------------------------
User input:
--------------------------------------------------------------
$molecule
0 1
C        -3.95964184810000   -1.62394824870000    0.43902700960000
C        -3.57342219120000   -0.39093088560000    0.13236974460000
C        -2.20006069980000    0.07960186970000    0.04561969560000
C        -1.93767019940000    1.43044816570000   -0.21919642870000
N        -0.73782047880000    1.95597902160000   -0.26195863950000
C         0.33993077450000    1.18993370510000   -0.08758975590000
C         1.62271112800000    1.87923140540000   -0.06398138750000
C         1.75705856400000    3.15241081910000   -0.41966221810000
C         0.20023972840000   -0.19960732920000    0.10594500290000
C         1.31434226180000   -1.17392652910000    0.22839384000000
O         1.24554536520000   -2.18438291520000    0.88470686940000
O         2.38929495690000   -0.84966813660000   -0.50333228340000
C         3.46842273070000   -1.77143666880000   -0.46102331430000
C        -1.08037002500000   -0.73393894840000    0.19720400670000
H        -5.00206054200000   -1.88805509130000    0.48380990430000
H        -3.26199264150000   -2.41322632020000    0.66052737300000
H        -4.32049204240000    0.36624914410000   -0.07239995900000
H        -2.75306592590000    2.12360370690000   -0.39079271040000
H         2.47527408580000    1.30444733360000    0.26271074150000
H         0.90622931940000    3.71918121290000   -0.75611961040000
H         2.70870035650000    3.65398475380000   -0.38479171850000
H         4.23723470280000   -1.36778484960000   -1.11470532590000
H         3.14228693350000   -2.75303215860000   -0.81098503380000
H         3.84319294490000   -1.87166748810000    0.55998677480000
H        -1.17640231930000   -1.79450531910000    0.37540865600000
$end

$rem
BASIS = 6-31G*
GUI = 2
METHOD = B3LYP
PRINT_ORBITALS false
MOLDEN_FORMAT false
--------------------------------------------------------------
 ----------------------------------------------------------------
             Standard Nuclear Orientation (Angstroms)
    I     Atom           X                Y                Z
 ----------------------------------------------------------------
    1      C       4.0021586994    -1.5855500575     0.0270013677
    2      C       3.5826917280    -0.3314839744     0.1490744548
    3      C       2.2016294507     0.1196690627     0.0844497363
    4      C       1.9072812033     1.4877513546     0.1584228494
    5      N       0.7017240169     1.9912852475     0.0548075599
    6      C      -0.3533306922     1.1888045705    -0.0923726779
    7      C      -1.6388579759     1.8448630121    -0.2878746832
    8      C      -1.8108271762     3.1497653137    -0.1056646843
    9      C      -0.1858323252    -0.2110859592    -0.0990344563
   10      C      -1.2784506101    -1.2143482840    -0.1709098141
   11      O      -1.1542078459    -2.2976069866    -0.6882261898
   12      O      -2.4042097291    -0.8216703394     0.4411035512
   13      C      -3.4679650137    -1.7620846045     0.4442232168
   14      C       1.1036930098    -0.7278745019    -0.0369551697
   15      H       5.0479858338    -1.8330578907     0.0851403628
   16      H       3.3297626239    -2.4096632869    -0.1387019916
   17      H       4.3058764140     0.4596447807     0.3055506325
   18      H       2.7015789805     2.2125296405     0.2946856709
   19      H      -2.4609348954     1.2173375192    -0.5950706589
   20      H      -0.9910593257     3.7705328724     0.2120946096
   21      H      -2.7632183413     3.6245832788    -0.2666411845
   22      H      -4.2838471316    -1.2945427786     0.9892441545
   23      H      -3.1559045009    -2.6855883150     0.9362868326
   24      H      -3.7711618703    -1.9967426252    -0.5785024611
   25      H       1.2230529079    -1.8003669125    -0.0729186133
 ----------------------------------------------------------------
 Molecular Point Group                 C1    NOp =  1
 Largest Abelian Subgroup              C1    NOp =  1
 Nuclear Repulsion Energy =         835.89047442 hartrees
 There are       50 alpha and       50 beta electrons
 Requested basis set is 6-31G(d)
 There are 78 shells and 232 basis functions

 Total QAlloc Memory Limit   4000 MB
 Mega-Array Size       188 MB
 MEM_STATIC part       192 MB
 A cutoff of  1.0D-08 yielded   1923 shell pairs
 There are     18990 function pairs
 Smallest overlap matrix eigenvalue = 5.37E-04

 Scale SEOQF with 1.000000e-01/1.000000e-01/1.000000e+00

 Standard Electronic Orientation quadrupole field applied
 Nucleus-field energy     =     0.0000000278 hartrees
 Guess from superposition of atomic densities
 Warning:  Energy on first SCF cycle will be non-variational
 SAD guess density has 100.000000 electrons

 -----------------------------------------------------------------------
  General SCF calculation program by
  Eric Jon Sundstrom, Paul Horn, Yuezhi Mao, Dmitri Zuev, Alec White,
  David Stuck, Shaama M.S., Shane Yost, Joonho Lee, David Small,
  Daniel Levine, Susi Lehtola, Hugh Burton, Evgeny Epifanovsky,
  Bang C. Huynh
 -----------------------------------------------------------------------
 Exchange:     0.2000 Hartree-Fock + 0.0800 Slater + 0.7200 B88
 Correlation:  0.1900 VWN1RPA + 0.8100 LYP
 Using SG-1 standard quadrature grid
 A restricted SCF calculation will be
 performed using DIIS
 SCF converges when DIIS error is below 1.0e-05
 ---------------------------------------
  Cycle       Energy         DIIS error
 ---------------------------------------
    1    -634.1356217286      5.38e-02  
    2    -630.7304747253      6.04e-03  
    3    -630.4697210952      9.47e-03  
    4    -630.9199747723      2.50e-03  
    5    -630.9551102693      5.78e-04  
    6    -630.9564821673      2.68e-04  
    7    -630.9568652009      6.53e-05  
    8    -630.9568885041      2.93e-05  
    9    -630.9568942107      5.80e-06  Convergence criterion met
 ---------------------------------------
 SCF time:   CPU 39.67s  wall 39.00s 
 SCF   energy in the final basis set =     -630.9568942107
 Total energy in the final basis set =     -630.9568942107
 
 --------------------------------------------------------------
 
                    Orbital Energies (a.u.)
 --------------------------------------------------------------
 
 Alpha MOs
 -- Occupied --
-19.2003 -19.1392 -14.3297 -10.3207 -10.2446 -10.2378 -10.2280 -10.2127
-10.2112 -10.2077 -10.2001 -10.1890 -10.1859 -10.1809  -1.1168  -1.0236
 -0.9578  -0.8346  -0.8150  -0.7790  -0.7442  -0.7279  -0.6587  -0.6517
 -0.5943  -0.5758  -0.5688  -0.5264  -0.5147  -0.5001  -0.4898  -0.4758
 -0.4617  -0.4450  -0.4310  -0.4226  -0.4183  -0.4063  -0.4003  -0.3949
 -0.3677  -0.3654  -0.3496  -0.3355  -0.3081  -0.2970  -0.2813  -0.2733
 -0.2548  -0.2235
 -- Virtual --
 -0.0609  -0.0442   0.0096   0.0407   0.0848   0.0992   0.1087   0.1143
  0.1294   0.1405   0.1472   0.1543   0.1663   0.1709   0.1840   0.1952
  0.2057   0.2117   0.2527   0.2628   0.2760   0.2993   0.3237   0.3295
  0.3377   0.3480   0.4031   0.4048   0.4319   0.4549   0.4636   0.4920
  0.5044   0.5243   0.5324   0.5404   0.5511   0.5591   0.5627   0.5660
  0.5780   0.5910   0.5985   0.6169   0.6200   0.6269   0.6302   0.6600
  0.6661   0.6736   0.6817   0.7031   0.7079   0.7157   0.7315   0.7470
  0.7677   0.8080   0.8265   0.8397   0.8419   0.8535   0.8633   0.8735
  0.8790   0.8840   0.8938   0.9060   0.9101   0.9302   0.9448   0.9502
  0.9760   0.9832   0.9985   1.0209   1.0375   1.0430   1.0573   1.0848
  1.0946   1.1342   1.1524   1.1625   1.1801   1.2093   1.2343   1.2556
  1.2616   1.2762   1.2994   1.3139   1.3497   1.3616   1.3953   1.4298
  1.4467   1.4679   1.4734   1.4912   1.5074   1.5194   1.5411   1.5602
  1.6383   1.6506   1.6672   1.6773   1.6855   1.7042   1.7111   1.7426
  1.7938   1.8093   1.8250   1.8296   1.8619   1.9058   1.9137   1.9486
  1.9646   1.9806   1.9900   2.0119   2.0276   2.0475   2.0775   2.0995
  2.1088   2.1189   2.1349   2.1526   2.1697   2.1708   2.2399   2.2480
  2.2643   2.2862   2.2958   2.3061   2.3350   2.3447   2.3623   2.3810
  2.4363   2.4758   2.4893   2.5108   2.5486   2.5654   2.5828   2.6384
  2.6544   2.6982   2.7086   2.7122   2.7488   2.8167   2.8513   2.8933
  2.9254   2.9595   2.9786   3.0603   3.1027   3.1353   3.3059   3.4778
  3.9838   4.0663   4.0790   4.1268   4.1433   4.1912   4.2175   4.2424
  4.2650   4.3140   4.3394   4.4698   4.5308   4.7429
 --------------------------------------------------------------
 
          Ground-State Mulliken Net Atomic Charges

     Atom                 Charge (a.u.)
  ----------------------------------------
      1 C                    -0.348917
      2 C                    -0.115932
      3 C                     0.144553
      4 C                    -0.007986
      5 N                    -0.493683
      6 C                     0.267702
      7 C                    -0.087600
      8 C                    -0.326591
      9 C                     0.040996
     10 C                     0.541109
     11 O                    -0.480659
     12 O                    -0.442333
     13 C                    -0.221368
     14 C                    -0.181705
     15 H                     0.150526
     16 H                     0.151979
     17 H                     0.133998
     18 H                     0.143319
     19 H                     0.140184
     20 H                     0.171568
     21 H                     0.142424
     22 H                     0.168539
     23 H                     0.172562
     24 H                     0.171009
     25 H                     0.166307
  ----------------------------------------
  Sum of atomic charges =     0.000000

 -----------------------------------------------------------------
                    Cartesian Multipole Moments
 -----------------------------------------------------------------
    Charge (ESU x 10^10)
                 0.0000
    Dipole Moment (Debye)
         X      -0.4536      Y      -0.2788      Z       0.8927
       Tot       1.0394
    Quadrupole Moments (Debye-Ang)
        XX     -63.1007     XY       0.6026     YY     -82.9276
        XZ      -0.0907     YZ      -2.8630     ZZ     -83.6816
    Octopole Moments (Debye-Ang^2)
       XXX     -28.7901    XXY     -15.6167    XYY      -6.9212
       YYY      -3.3755    XXZ       4.6734    XYZ       8.0994
       YYZ      10.6961    XZZ     -11.7655    YZZ      -4.6913
       ZZZ       0.2402
    Hexadecapole Moments (Debye-Ang^3)
      XXXX   -2280.2553   XXXY      70.9434   XXYY    -585.3470
      XYYY     -17.1437   YYYY   -1410.8723   XXXZ      -0.3544
      XXYZ      -8.3534   XYYZ     -13.0393   YYYZ     -11.7157
      XXZZ    -477.1274   XYZZ      20.9770   YYZZ    -270.5076
      XZZZ      -5.1429   YZZZ       4.4529   ZZZZ    -126.9159
 -----------------------------------------------------------------
Archival summary:
1\1\nia0231.scinet.local\SP\ProcedureUnspecified\6-31G*\211111\rhickman\MonFeb710:00:412022MonFeb710:00:412022\0\\#,ProcedureUnspecified,6-31G*,\\0,1\O\C,1,1.34018\O,2,1.20686,1,123.04\C,1,1.41985,2,115.866,3,-0.308582,0\H,4,1.08688,1,106.176,2,178.995,0\H,4,1.09196,1,110.306,2,59.0916,0\H,4,1.09223,1,110.378,2,-60.9725,0\C,2,1.4851,1,113.451,3,-177.562,0\C,8,1.39061,2,115.68,1,147.202,0\H,9,1.07971,8,118.045,2,1.68149,0\C,9,1.39231,8,120.592,2,-177.549,0\C,11,1.40134,9,115.674,8,0.975625,0\H,12,1.08387,11,120.366,9,177.498,0\N,12,1.31059,11,124.342,9,-3.48657,0\C,14,1.33371,12,120.346,11,2.10026,0\C,11,1.45432,9,124.325,8,-179.653,0\H,16,1.08322,11,114.447,9,-176.352,0\C,16,1.32798,11,126.073,9,4.09001,0\H,18,1.07629,16,121.274,11,179.831,0\H,18,1.07645,16,122.671,11,0.114555,0\C,15,1.45644,14,116.233,12,-176.057,0\H,21,1.07887,15,116.665,14,168.605,0\C,21,1.32874,15,122.561,14,-11.2279,0\H,23,1.07626,21,120.553,15,-0.901467,0\H,23,1.0763,21,121.82,15,179.146,0\\\@

 Total job time:  40.25s(wall), 39.87s(cpu) 
 Mon Feb  7 10:00:41 2022

        *************************************************************
        *                                                           *
        *  Thank you very much for using Q-Chem.  Have a nice day.  *
        *                                                           *
        *************************************************************


