23
 energy: -29.605215606522 gnorm: 0.000057463236 xtb: 6.4.1 (23d549d)
C         3.77431513190000    0.82381867210000    0.34612676770000
C         3.03310236440000   -0.21909327030000   -0.00910063900000
C         1.57906336590000   -0.27415727440000   -0.07807381500000
C         0.95630393260000   -1.49764673000000   -0.33242771980000
C        -0.41577662290000   -1.58197811590000   -0.39950587120000
C        -1.22969982230000   -0.46491890000000   -0.19777236980000
C        -2.67695807810000   -0.67499156120000   -0.25651973050000
C        -3.58762392030000   -0.13043427630000    0.53839634290000
C        -0.61814077230000    0.77618945780000    0.02691041280000
C        -1.40196956570000    2.04714344480000    0.17143606150000
C         0.76551007150000    0.84541502000000    0.08021493550000
H         4.84902254010000    0.76444519350000    0.37045711440000
H         3.34996156330000    1.77140209790000    0.63064601850000
H         3.52837814990000   -1.14720826690000   -0.26980024680000
H         1.55795972420000   -2.38356564580000   -0.47941766990000
H        -0.88317206510000   -2.53711107810000   -0.59585472880000
H        -2.99326775260000   -1.39874034390000   -0.99952247660000
H        -3.33082560710000    0.54776790910000    1.33294763370000
H        -4.63289208450000   -0.37216666220000    0.44033521610000
H        -2.34040215830000    1.99384611640000   -0.37503714820000
H        -0.82196657760000    2.88887696670000   -0.20220938660000
H        -1.62743061430000    2.24034951180000    1.22037097510000
H         1.22193183260000    1.81079215620000    0.24170020660000
