26
 energy: -32.771362258046 gnorm: 0.000102688682 xtb: 6.4.1 (23d549d)
C         3.60932864590000    1.23147892310000   -0.43787659800000
C         2.86539002490000    0.33797030360000    0.19755239050000
C         1.40115241420000    0.29031155700000    0.13191578690000
C         0.68789910770000    1.48593878230000    0.18797881250000
C        -0.68818309040000    1.48557685010000    0.19074537020000
C        -1.40206004430000    0.28985878440000    0.14058889260000
C        -2.86602798820000    0.34206485480000    0.21040034780000
C        -3.60852590120000    1.23049223280000   -0.43352053950000
C        -0.69971546350000   -0.91772029230000    0.05183837610000
C        -1.42668825950000   -2.22536252550000   -0.07524890230000
C         0.69824482590000   -0.91688512670000    0.04414562510000
C         1.42842879070000   -2.22199817740000   -0.09209163980000
H         4.68191918440000    1.24971397780000   -0.34263826250000
H         3.17552497510000    1.96870926480000   -1.09309356940000
H         3.34255588160000   -0.39891348660000    0.83150187770000
H         1.22771789100000    2.41821014750000    0.26305031400000
H        -1.22807387940000    2.41776137710000    0.26667267210000
H        -3.34472529200000   -0.38491115530000    0.85459559710000
H        -3.17374532330000    1.95827661390000   -1.09854909420000
H        -4.68075139210000    1.25387710600000   -0.33547666490000
H        -2.50231601170000   -2.08624098380000   -0.09069241130000
H        -1.16944463970000   -2.88914052480000    0.75012398820000
H        -1.14401410390000   -2.72547453210000   -1.00148966050000
H         1.06302570540000   -2.77266285840000   -0.95785115420000
H         1.26645805460000   -2.84547794460000    0.78773988150000
H         2.49488927080000   -2.07020877810000   -0.22134839200000
