
Running Job 1 of 1 fragments/C078/conf-0/spe_input.inp
qchem fragments/C078/conf-0/spe_input.inp_319525.0 /gpfs/fs0/scratch/a/aspuru/rhickman/descriptor_computation/qchem319525/ 0
/scinet/niagara/software/commercial/qc52/exe/qcprog.exe_s fragments/C078/conf-0/spe_input.inp_319525.0 /gpfs/fs0/scratch/a/aspuru/rhickman/descriptor_computation/qchem319525/
                  Welcome to Q-Chem
     A Quantum Leap Into The Future Of Chemistry


 Q-Chem 5.2, Q-Chem, Inc., Pleasanton, CA (2019)

 License issued to: SRG Alan Aspuru-Guzik, University of Toronto

 Yihan Shao,  Zhengting Gan,  E. Epifanovsky,  A. T. B. Gilbert,  M. Wormit,  
 J. Kussmann,  A. W. Lange,  A. Behn,  Jia Deng,  Xintian Feng,  D. Ghosh,  
 M. Goldey,  P. R. Horn,  L. D. Jacobson,  I. Kaliman,  T. Kus,  A. Landau,  
 Jie Liu,  E. I. Proynov,  R. M. Richard,  R. P. Steele,  E. J. Sundstrom,  
 H. L. Woodcock III,  P. M. Zimmerman,  D. Zuev,  B. Albrecht,  E. Alguire,  
 S. A. Baeppler,  D. Barton,  Z. Benda,  Y. A. Bernard,  E. J. Berquist,  
 K. B. Bravaya,  H. Burton,  D. Casanova,  Chun-Min Chang,  Yunqing Chen,  
 A. Chien,  K. D. Closser,  M. P. Coons,  S. Coriani,  S. Dasgupta,  
 A. L. Dempwolff,  M. Diedenhofen,  Hainam Do,  R. G. Edgar,  Po-Tung Fang,  
 S. Faraji,  S. Fatehi,  Qingguo Feng,  K. D. Fenk,  J. Fosso-Tande,  
 J. Gayvert,  Qinghui Ge,  A. Ghysels,  G. Gidofalvi,  J. Gomes,  
 J. Gonthier,  A. Gunina,  D. Hait,  M. W. D. Hanson-Heine,  
 P. H. P. Harbach,  A. W. Hauser,  M. F. Herbst,  J. E. Herr,  
 E. G. Hohenstein,  Z. C. Holden,  Kerwin Hui,  B. C. Huynh,  T.-C. Jagau,  
 Hyunjun Ji,  B. Kaduk,  K. Khistyaev,  Jaehoon Kim,  P. Klunzinger,  K. Koh,  
 D. Kosenkov,  L. Koulias,  T. Kowalczyk,  C. M. Krauter,  A. Kunitsa,  
 Ka Un Lao,  A. Laurent,  K. V. Lawler,  Joonho Lee,  D. Lefrancois,  
 S. Lehtola,  D. S. Levine,  Yi-Pei Li,  You-Sheng Lin,  Fenglai Liu,  
 E. Livshits,  A. Luenser,  P. Manohar,  E. Mansoor,  S. F. Manzer,  
 Shan-Ping Mao,  Yuezhi Mao,  N. Mardirossian,  A. V. Marenich,  
 T. Markovich,  L. A. Martinez-Martinez,  S. A. Maurer,  N. J. Mayhall,  
 S. C. McKenzie,  J.-M. Mewes,  P. Morgante,  A. F. Morrison,  
 J. W. Mullinax,  K. Nanda,  T. S. Nguyen-Beck,  R. Olivares-Amaya,  
 J. A. Parkhill,  Zheng Pei,  T. M. Perrine,  F. Plasser,  P. Pokhilko,  
 S. Prager,  A. Prociuk,  E. Ramos,  D. R. Rehn,  F. Rob,  M. Scheurer,  
 M. Schneider,  N. Sergueev,  S. M. Sharada,  S. Sharma,  D. W. Small,  
 T. Stauch,  T. Stein,  Yu-Chuan Su,  A. J. W. Thom,  A. Tkatchenko,  
 T. Tsuchimochi,  N. M. Tubman,  L. Vogt,  M. L. Vidal,  O. Vydrov,  
 M. A. Watson,  J. Wenzel,  M. de Wergifosse,  T. A. Wesolowski,  A. White,  
 J. Witte,  A. Yamada,  Jun Yang,  K. Yao,  S. Yeganeh,  S. R. Yost,  
 Zhi-Qiang You,  A. Zech,  Igor Ying Zhang,  Xing Zhang,  Yan Zhao,  
 Ying Zhu,  B. R. Brooks,  G. K. L. Chan,  C. J. Cramer,  M. S. Gordon,  
 W. J. Hehre,  A. Klamt,  M. W. Schmidt,  C. D. Sherrill,  D. G. Truhlar,  
 A. Aspuru-Guzik,  R. Baer,  A. T. Bell,  N. A. Besley,  Jeng-Da Chai,  
 A. E. DePrince, III,  R. A. DiStasio Jr.,  A. Dreuw,  B. D. Dunietz,  
 T. R. Furlani,  Chao-Ping Hsu,  Yousung Jung,  Jing Kong,  D. S. Lambrecht,  
 WanZhen Liang,  C. Ochsenfeld,  V. A. Rassolov,  L. V. Slipchenko,  
 J. E. Subotnik,  T. Van Voorhis,  J. M. Herbert,  A. I. Krylov,  
 P. M. W. Gill,  M. Head-Gordon

 Contributors to earlier versions of Q-Chem not listed above: 
 R. D. Adamson,  B. Austin,  J. Baker,  G. J. O. Beran,  K. Brandhorst,  
 S. T. Brown,  E. F. C. Byrd,  A. K. Chakraborty,  C.-L. Cheng,  
 Siu Hung Chien,  D. M. Chipman,  D. L. Crittenden,  H. Dachsel,  
 R. J. Doerksen,  A. D. Dutoi,  L. Fusti-Molnar,  W. A. Goddard III,  
 A. Golubeva-Zadorozhnaya,  S. R. Gwaltney,  G. Hawkins,  A. Heyden,  
 S. Hirata,  G. Kedziora,  F. J. Keil,  C. Kelley,  Jihan Kim,  R. A. King,  
 R. Z. Khaliullin,  P. P. Korambath,  W. Kurlancheek,  A. M. Lee,  M. S. Lee,  
 S. V. Levchenko,  Ching Yeh Lin,  D. Liotard,  R. C. Lochan,  I. Lotan,  
 P. E. Maslen,  N. Nair,  D. P. O'Neill,  D. Neuhauser,  E. Neuscamman,  
 C. M. Oana,  R. Olson,  B. Peters,  R. Peverati,  P. A. Pieniazek,  
 Y. M. Rhee,  J. Ritchie,  M. A. Rohrdanz,  E. Rosta,  N. J. Russ,  
 H. F. Schaefer III,  N. E. Schultz,  N. Shenvi,  A. C. Simmonett,  A. Sodt,  
 D. Stuck,  K. S. Thanthiriwatte,  V. Vanovschi,  Tao Wang,  A. Warshel,  
 C. F. Williams,  Q. Wu,  X. Xu,  W. Zhang

 Please cite Q-Chem as follows:
 Y. Shao et al., Mol. Phys. 113, 184-215 (2015)
 DOI: 10.1080/00268976.2014.952696

 Q-Chem 5.2.1 for Intel X86 EM64T Linux

 Parts of Q-Chem use Armadillo 8.300.2 (Tropical Shenanigans).
 http://arma.sourceforge.net/

 Q-Chem begins on Tue Feb  8 14:22:38 2022  

Host: 
0

     Scratch files written to /gpfs/fs0/scratch/a/aspuru/rhickman/descriptor_computation/qchem319525//
 Jul1719 |scratch|qcdevops|jenkins|workspace|build_RNUM -1
Processing $rem in /scinet/niagara/software/commercial/qc52/config/preferences:
	 MEM_TOTAL  4000 
NAlpha2: 72
NElect   72
Mult     1

Checking the input file for inconsistencies... 	...done.

--------------------------------------------------------------
User input:
--------------------------------------------------------------
$molecule
0 1
C        -3.69903734490000    0.14093716720000    0.00406416670000
C        -2.55717113330000    0.81756776210000   -0.00134830020000
C        -1.23006871590000    0.23550208480000   -0.00154810970000
C        -0.89867527620000   -1.09742584200000   -0.00107260660000
S         0.79738055410000   -1.31659550880000   -0.00057300190000
C         0.97071102300000    0.44494603280000   -0.00091960730000
C         2.25376005710000    1.09156439120000    0.00016071820000
C         3.41964017430000    0.45394275420000    0.00307806370000
N        -0.15562469380000    1.06578054710000   -0.00173874450000
H        -4.64868233640000    0.64674231560000    0.00412435560000
H        -3.73184024100000   -0.93535202290000    0.00884272110000
H        -2.55440723950000    1.89851296060000   -0.00566563680000
H        -1.54894947580000   -1.94801182690000   -0.00120068800000
H         2.20028699400000    2.17146297970000   -0.00125163740000
H         3.47414698740000   -0.62276078880000    0.00459519090000
H         4.35385614410000    0.98666210200000    0.00417416620000
$end

$rem
BASIS = 6-31G*
GUI = 2
METHOD = B3LYP
PRINT_ORBITALS false
MOLDEN_FORMAT false
--------------------------------------------------------------
 ----------------------------------------------------------------
             Standard Nuclear Orientation (Angstroms)
    I     Atom           X                Y                Z
 ----------------------------------------------------------------
    1      C       3.6803688681     0.1649667770    -0.0039640597
    2      C       2.5313066794     0.8293043041     0.0013687193
    3      C       1.2105275081     0.2330295066     0.0016246706
    4      C       0.8934583435    -1.1033782644     0.0012922811
    5      S      -0.8001476431    -1.3407376939     0.0008073876
    6      C      -0.9923732655     0.4188422164     0.0009615754
    7      C      -2.2822880074     1.0516533345    -0.0001959341
    8      C      -3.4412579080     0.4015557011    -0.0030502323
    9      N       0.1272346878     1.0517290695     0.0017192777
   10      H       4.6245307904     0.6809345220    -0.0040741289
   11      H       3.7247208067    -0.9109088954    -0.0086254412
   12      H       2.5169420471     1.9101580498     0.0055685382
   13      H       1.5528237112    -1.9469364013     0.0015163185
   14      H      -2.2404076702     2.1320637586     0.0010993198
   15      H      -3.4842062248    -0.6756709672    -0.0044506106
   16      H      -4.3811372936     0.9242180972    -0.0042092632
 ----------------------------------------------------------------
 Molecular Point Group                 C1    NOp =  1
 Largest Abelian Subgroup              C1    NOp =  1
 Nuclear Repulsion Energy =         472.19914747 hartrees
 There are       36 alpha and       36 beta electrons
 Requested basis set is 6-31G(d)
 There are 51 shells and 153 basis functions

 Total QAlloc Memory Limit   4000 MB
 Mega-Array Size       188 MB
 MEM_STATIC part       192 MB
 A cutoff of  1.0D-08 yielded    980 shell pairs
 There are      9719 function pairs
 Smallest overlap matrix eigenvalue = 1.81E-03

 Scale SEOQF with 1.000000e-01/1.000000e-01/1.000000e+00

 Standard Electronic Orientation quadrupole field applied
 Nucleus-field energy     =     0.0000000170 hartrees
 Guess from superposition of atomic densities
 Warning:  Energy on first SCF cycle will be non-variational
 SAD guess density has 72.000000 electrons

 -----------------------------------------------------------------------
  General SCF calculation program by
  Eric Jon Sundstrom, Paul Horn, Yuezhi Mao, Dmitri Zuev, Alec White,
  David Stuck, Shaama M.S., Shane Yost, Joonho Lee, David Small,
  Daniel Levine, Susi Lehtola, Hugh Burton, Evgeny Epifanovsky,
  Bang C. Huynh
 -----------------------------------------------------------------------
 Exchange:     0.2000 Hartree-Fock + 0.0800 Slater + 0.7200 B88
 Correlation:  0.1900 VWN1RPA + 0.8100 LYP
 Using SG-1 standard quadrature grid
 A restricted SCF calculation will be
 performed using DIIS
 SCF converges when DIIS error is below 1.0e-05
 ---------------------------------------
  Cycle       Energy         DIIS error
 ---------------------------------------
    1    -725.9439047323      6.55e-02  
    2    -723.6884730789      7.04e-03  
    3    -723.5072048691      1.03e-02  
    4    -723.8217485775      3.01e-03  
    5    -723.8480240808      6.56e-04  
    6    -723.8488637276      3.75e-04  
    7    -723.8493057171      9.68e-05  
    8    -723.8493354169      2.39e-05  
    9    -723.8493368752      8.01e-06  Convergence criterion met
 ---------------------------------------
 SCF time:   CPU 14.41s  wall 15.00s 
 SCF   energy in the final basis set =     -723.8493368752
 Total energy in the final basis set =     -723.8493368752
 
 --------------------------------------------------------------
 
                    Orbital Energies (a.u.)
 --------------------------------------------------------------
 
 Alpha MOs
 -- Occupied --
-88.9145 -14.3317 -10.2529 -10.2235 -10.2189 -10.2048 -10.1954 -10.1917
-10.1828  -7.9767  -5.9404  -5.9369  -5.9341  -0.9754  -0.8171  -0.8038
 -0.7816  -0.7135  -0.6321  -0.6183  -0.5484  -0.5430  -0.4996  -0.4799
 -0.4437  -0.4282  -0.4252  -0.4035  -0.3928  -0.3756  -0.3480  -0.3264
 -0.2974  -0.2741  -0.2681  -0.2132
 -- Virtual --
 -0.0562  -0.0165   0.0197   0.0730   0.0832   0.1154   0.1156   0.1269
  0.1301   0.1635   0.1756   0.2001   0.2129   0.2386   0.2615   0.2977
  0.3143   0.3325   0.3493   0.3565   0.3743   0.3924   0.4604   0.4832
  0.4913   0.5117   0.5218   0.5292   0.5311   0.5778   0.6060   0.6067
  0.6146   0.6298   0.6399   0.6707   0.6773   0.6863   0.7358   0.7598
  0.7611   0.8094   0.8283   0.8294   0.8428   0.8540   0.8648   0.8753
  0.8862   0.9021   0.9142   0.9259   0.9659   0.9711   0.9960   0.9982
  1.0199   1.0656   1.0978   1.1279   1.1524   1.1959   1.2328   1.2881
  1.2915   1.3387   1.3793   1.3934   1.4432   1.4554   1.4829   1.4954
  1.6123   1.6194   1.6681   1.7161   1.7648   1.7989   1.8411   1.8562
  1.9312   1.9689   1.9809   2.0177   2.0251   2.0796   2.0986   2.1408
  2.1839   2.2290   2.2421   2.2653   2.2912   2.3724   2.4026   2.4607
  2.4667   2.5104   2.5357   2.5979   2.6112   2.6772   2.7512   2.7903
  2.9060   3.0065   3.1919   3.2165   3.9445   4.0623   4.1025   4.1201
  4.1476   4.2243   4.2658   4.4644   4.5521
 --------------------------------------------------------------
 
          Ground-State Mulliken Net Atomic Charges

     Atom                 Charge (a.u.)
  ----------------------------------------
      1 C                    -0.347733
      2 C                    -0.091278
      3 C                     0.324932
      4 C                    -0.398147
      5 S                     0.240815
      6 C                     0.087001
      7 C                    -0.064904
      8 C                    -0.356270
      9 N                    -0.482266
     10 H                     0.148269
     11 H                     0.137161
     12 H                     0.146294
     13 H                     0.177507
     14 H                     0.161960
     15 H                     0.159572
     16 H                     0.157087
  ----------------------------------------
  Sum of atomic charges =     0.000000

 -----------------------------------------------------------------
                    Cartesian Multipole Moments
 -----------------------------------------------------------------
    Charge (ESU x 10^10)
                 0.0000
    Dipole Moment (Debye)
         X      -0.2974      Y      -0.9576      Z      -0.0017
       Tot       1.0027
    Quadrupole Moments (Debye-Ang)
        XX     -50.1147     XY      -2.4585     YY     -56.9757
        XZ       0.0031     YZ       0.0105     ZZ     -63.0842
    Octopole Moments (Debye-Ang^2)
       XXX      -8.0443    XXY       4.5975    XYY       2.6148
       YYY      -3.5556    XXZ      -0.0734    XYZ       0.0240
       YYZ       0.0099    XZZ      -1.3243    YZZ      -0.4408
       ZZZ       0.0128
    Hexadecapole Moments (Debye-Ang^3)
      XXXX   -1516.1257   XXXY      -5.7969   XXYY    -316.0724
      XYYY     -13.4699   YYYY    -384.0735   XXXZ      -0.0159
      XXYZ       0.0938   XYYZ       0.0263   YYYZ       0.0313
      XXZZ    -325.2229   XYZZ       1.0518   YYZZ     -82.5824
      XZZZ       0.0033   YZZZ       0.0165   ZZZZ     -67.4519
 -----------------------------------------------------------------
Archival summary:
1\1\nia2015.scinet.local\SP\ProcedureUnspecified\6-31G*\1177\rhickman\TueFeb814:22:532022TueFeb814:22:532022\0\\#,ProcedureUnspecified,6-31G*,\\0,1\S\C,1,1.71016\H,2,1.07068,1,120.035\C,2,1.37351,1,111.325,3,-179.987,0\N,4,1.35786,2,113.733,1,0.0102912,0\C,5,1.28611,4,113.441,2,-0.0251315,0\C,6,1.43678,5,124.39,4,-179.948,0\H,7,1.08122,6,113.912,5,-0.0862369,0\C,7,1.32885,6,124.579,5,179.892,0\H,9,1.07543,7,121.633,6,-179.975,0\H,9,1.07808,7,121.572,6,0.0170451,0\C,4,1.44914,2,127.644,1,-179.964,0\H,12,1.08096,4,113.535,2,-179.778,0\C,12,1.3273,4,125.668,2,0.250778,0\H,14,1.07595,12,121.309,4,179.98,0\H,14,1.0768,12,122.396,4,-0.00508637,0\\\@

 Total job time:  14.61s(wall), 14.54s(cpu) 
 Tue Feb  8 14:22:53 2022

        *************************************************************
        *                                                           *
        *  Thank you very much for using Q-Chem.  Have a nice day.  *
        *                                                           *
        *************************************************************


