
Running Job 1 of 1 fragments/C083/conf-2/spe_input.inp
qchem fragments/C083/conf-2/spe_input.inp_337341.0 /gpfs/fs0/scratch/a/aspuru/rhickman/descriptor_computation/qchem337341/ 0
/scinet/niagara/software/commercial/qc52/exe/qcprog.exe_s fragments/C083/conf-2/spe_input.inp_337341.0 /gpfs/fs0/scratch/a/aspuru/rhickman/descriptor_computation/qchem337341/
                  Welcome to Q-Chem
     A Quantum Leap Into The Future Of Chemistry


 Q-Chem 5.2, Q-Chem, Inc., Pleasanton, CA (2019)

 License issued to: SRG Alan Aspuru-Guzik, University of Toronto

 Yihan Shao,  Zhengting Gan,  E. Epifanovsky,  A. T. B. Gilbert,  M. Wormit,  
 J. Kussmann,  A. W. Lange,  A. Behn,  Jia Deng,  Xintian Feng,  D. Ghosh,  
 M. Goldey,  P. R. Horn,  L. D. Jacobson,  I. Kaliman,  T. Kus,  A. Landau,  
 Jie Liu,  E. I. Proynov,  R. M. Richard,  R. P. Steele,  E. J. Sundstrom,  
 H. L. Woodcock III,  P. M. Zimmerman,  D. Zuev,  B. Albrecht,  E. Alguire,  
 S. A. Baeppler,  D. Barton,  Z. Benda,  Y. A. Bernard,  E. J. Berquist,  
 K. B. Bravaya,  H. Burton,  D. Casanova,  Chun-Min Chang,  Yunqing Chen,  
 A. Chien,  K. D. Closser,  M. P. Coons,  S. Coriani,  S. Dasgupta,  
 A. L. Dempwolff,  M. Diedenhofen,  Hainam Do,  R. G. Edgar,  Po-Tung Fang,  
 S. Faraji,  S. Fatehi,  Qingguo Feng,  K. D. Fenk,  J. Fosso-Tande,  
 J. Gayvert,  Qinghui Ge,  A. Ghysels,  G. Gidofalvi,  J. Gomes,  
 J. Gonthier,  A. Gunina,  D. Hait,  M. W. D. Hanson-Heine,  
 P. H. P. Harbach,  A. W. Hauser,  M. F. Herbst,  J. E. Herr,  
 E. G. Hohenstein,  Z. C. Holden,  Kerwin Hui,  B. C. Huynh,  T.-C. Jagau,  
 Hyunjun Ji,  B. Kaduk,  K. Khistyaev,  Jaehoon Kim,  P. Klunzinger,  K. Koh,  
 D. Kosenkov,  L. Koulias,  T. Kowalczyk,  C. M. Krauter,  A. Kunitsa,  
 Ka Un Lao,  A. Laurent,  K. V. Lawler,  Joonho Lee,  D. Lefrancois,  
 S. Lehtola,  D. S. Levine,  Yi-Pei Li,  You-Sheng Lin,  Fenglai Liu,  
 E. Livshits,  A. Luenser,  P. Manohar,  E. Mansoor,  S. F. Manzer,  
 Shan-Ping Mao,  Yuezhi Mao,  N. Mardirossian,  A. V. Marenich,  
 T. Markovich,  L. A. Martinez-Martinez,  S. A. Maurer,  N. J. Mayhall,  
 S. C. McKenzie,  J.-M. Mewes,  P. Morgante,  A. F. Morrison,  
 J. W. Mullinax,  K. Nanda,  T. S. Nguyen-Beck,  R. Olivares-Amaya,  
 J. A. Parkhill,  Zheng Pei,  T. M. Perrine,  F. Plasser,  P. Pokhilko,  
 S. Prager,  A. Prociuk,  E. Ramos,  D. R. Rehn,  F. Rob,  M. Scheurer,  
 M. Schneider,  N. Sergueev,  S. M. Sharada,  S. Sharma,  D. W. Small,  
 T. Stauch,  T. Stein,  Yu-Chuan Su,  A. J. W. Thom,  A. Tkatchenko,  
 T. Tsuchimochi,  N. M. Tubman,  L. Vogt,  M. L. Vidal,  O. Vydrov,  
 M. A. Watson,  J. Wenzel,  M. de Wergifosse,  T. A. Wesolowski,  A. White,  
 J. Witte,  A. Yamada,  Jun Yang,  K. Yao,  S. Yeganeh,  S. R. Yost,  
 Zhi-Qiang You,  A. Zech,  Igor Ying Zhang,  Xing Zhang,  Yan Zhao,  
 Ying Zhu,  B. R. Brooks,  G. K. L. Chan,  C. J. Cramer,  M. S. Gordon,  
 W. J. Hehre,  A. Klamt,  M. W. Schmidt,  C. D. Sherrill,  D. G. Truhlar,  
 A. Aspuru-Guzik,  R. Baer,  A. T. Bell,  N. A. Besley,  Jeng-Da Chai,  
 A. E. DePrince, III,  R. A. DiStasio Jr.,  A. Dreuw,  B. D. Dunietz,  
 T. R. Furlani,  Chao-Ping Hsu,  Yousung Jung,  Jing Kong,  D. S. Lambrecht,  
 WanZhen Liang,  C. Ochsenfeld,  V. A. Rassolov,  L. V. Slipchenko,  
 J. E. Subotnik,  T. Van Voorhis,  J. M. Herbert,  A. I. Krylov,  
 P. M. W. Gill,  M. Head-Gordon

 Contributors to earlier versions of Q-Chem not listed above: 
 R. D. Adamson,  B. Austin,  J. Baker,  G. J. O. Beran,  K. Brandhorst,  
 S. T. Brown,  E. F. C. Byrd,  A. K. Chakraborty,  C.-L. Cheng,  
 Siu Hung Chien,  D. M. Chipman,  D. L. Crittenden,  H. Dachsel,  
 R. J. Doerksen,  A. D. Dutoi,  L. Fusti-Molnar,  W. A. Goddard III,  
 A. Golubeva-Zadorozhnaya,  S. R. Gwaltney,  G. Hawkins,  A. Heyden,  
 S. Hirata,  G. Kedziora,  F. J. Keil,  C. Kelley,  Jihan Kim,  R. A. King,  
 R. Z. Khaliullin,  P. P. Korambath,  W. Kurlancheek,  A. M. Lee,  M. S. Lee,  
 S. V. Levchenko,  Ching Yeh Lin,  D. Liotard,  R. C. Lochan,  I. Lotan,  
 P. E. Maslen,  N. Nair,  D. P. O'Neill,  D. Neuhauser,  E. Neuscamman,  
 C. M. Oana,  R. Olson,  B. Peters,  R. Peverati,  P. A. Pieniazek,  
 Y. M. Rhee,  J. Ritchie,  M. A. Rohrdanz,  E. Rosta,  N. J. Russ,  
 H. F. Schaefer III,  N. E. Schultz,  N. Shenvi,  A. C. Simmonett,  A. Sodt,  
 D. Stuck,  K. S. Thanthiriwatte,  V. Vanovschi,  Tao Wang,  A. Warshel,  
 C. F. Williams,  Q. Wu,  X. Xu,  W. Zhang

 Please cite Q-Chem as follows:
 Y. Shao et al., Mol. Phys. 113, 184-215 (2015)
 DOI: 10.1080/00268976.2014.952696

 Q-Chem 5.2.1 for Intel X86 EM64T Linux

 Parts of Q-Chem use Armadillo 8.300.2 (Tropical Shenanigans).
 http://arma.sourceforge.net/

 Q-Chem begins on Tue Feb  8 15:25:50 2022  

Host: 
0

     Scratch files written to /gpfs/fs0/scratch/a/aspuru/rhickman/descriptor_computation/qchem337341//
 Jul1719 |scratch|qcdevops|jenkins|workspace|build_RNUM -1
Processing $rem in /scinet/niagara/software/commercial/qc52/config/preferences:
	 MEM_TOTAL  4000 
NAlpha2: 118
NElect   118
Mult     1

Checking the input file for inconsistencies... 	...done.

--------------------------------------------------------------
User input:
--------------------------------------------------------------
$molecule
0 1
C        -4.12595814620000    2.08469621470000   -0.06994073250000
C        -2.90830230820000    2.18649234120000    0.45490927120000
C        -1.89633559130000    1.16807195990000    0.39297789120000
C        -0.62897090850000    1.23295887710000    0.90176389510000
C         0.16789765410000    0.08137220850000    0.69120432300000
C         1.59406209870000    0.11930440780000    1.19650461960000
C         2.48659296380000   -1.09676782820000    0.93330231670000
C         2.82944083320000   -1.26658599480000   -0.54520123550000
C         3.50757985150000   -0.01311327720000   -1.08657738740000
C         2.61353459500000    1.19836688930000   -0.85013122560000
C         2.32666773860000    1.35460578280000    0.63892766330000
C        -0.53742597800000   -0.90223048530000    0.03055495830000
C        -0.21632250270000   -2.26578576890000   -0.32253546120000
C        -0.84862159740000   -2.96321821410000   -1.26222197480000
S        -2.15358258780000   -0.36348083160000   -0.37277456980000
H        -4.84453781720000    2.88122460800000    0.00670653050000
H        -4.43699403420000    1.19600438450000   -0.59403951440000
H        -2.60956310880000    3.08686723980000    0.97755101140000
H        -0.28248825670000    2.09780932520000    1.44073623370000
H         1.51852101280000    0.24247819950000    2.28699678570000
H         2.03162667530000   -2.00155228720000    1.33726437660000
H         3.41785170240000   -0.94115170950000    1.48622749900000
H         1.92301701470000   -1.45161994890000   -1.12257509080000
H         3.48708649100000   -2.13045174100000   -0.66767563870000
H         3.70897899330000   -0.13080881380000   -2.15325714050000
H         4.46408881760000    0.13777960820000   -0.57947110760000
H         1.67232540070000    1.06942117910000   -1.38963358890000
H         3.09734488250000    2.10163884430000   -1.22833389410000
H         1.74616930790000    2.26123376720000    0.80744634100000
H         3.27272991540000    1.46544942240000    1.17508953300000
H         0.56374446740000   -2.74438154990000    0.24852149750000
H        -1.63557984780000   -2.53128549990000   -1.85818417770000
H        -0.59487612800000   -3.98846426760000   -1.46658253020000
$end

$rem
BASIS = 6-31G*
GUI = 2
METHOD = B3LYP
PRINT_ORBITALS false
MOLDEN_FORMAT false
--------------------------------------------------------------
 ----------------------------------------------------------------
             Standard Nuclear Orientation (Angstroms)
    I     Atom           X                Y                Z
 ----------------------------------------------------------------
    1      C       4.5675280935     0.9210456775     0.4816673304
    2      C       3.4271304480     1.4498445676     0.0476389197
    3      C       2.1995036890     0.7254286586    -0.1346968602
    4      C       1.0015210296     1.2273143580    -0.5615868243
    5      C      -0.0540062755     0.2868828592    -0.6448778746
    6      C      -1.4126540967     0.8006100722    -1.0701692017
    7      C      -2.5781363015    -0.1914444417    -1.1170472602
    8      C      -2.9991321323    -0.6712913000     0.2703478270
    9      C      -3.3748891754     0.5110695528     1.1563410426
   10      C      -2.2098982295     1.4911819701     1.2276407424
   11      C      -1.8461361981     1.9746191785    -0.1716323581
   12      C       0.3739235244    -0.9784573953    -0.3025280608
   13      C      -0.2751925233    -2.2689149028    -0.3232904166
   14      C       0.1413181271    -3.3262633644     0.3679099982
   15      S       2.0581597145    -0.9722784171     0.1751730603
   16      H       5.4578443331     1.5127294291     0.5997196896
   17      H       4.6399263426    -0.1244456494     0.7324708485
   18      H       3.3694126817     2.5028905937    -0.1990130259
   19      H       0.8895011315     2.2631079869    -0.8319399418
   20      H      -1.2747293882     1.1949291873    -2.0877843614
   21      H      -2.3399903676    -1.0330571855    -1.7680381130
   22      H      -3.4268247992     0.3267961776    -1.5734899907
   23      H      -2.1823685474    -1.2176900232     0.7431564071
   24      H      -3.8478978627    -1.3527832253     0.1758633904
   25      H      -3.6328739703     0.1584020711     2.1569853561
   26      H      -4.2506884051     1.0184342137     0.7435558027
   27      H      -1.3447419059     0.9990840050     1.6780945937
   28      H      -2.4755668790     2.3453005483     1.8544672739
   29      H      -1.0605255736     2.7269464963    -0.1070504071
   30      H      -2.7204392116     2.4500939425    -0.6236362239
   31      H      -1.1282573038    -2.3728808798    -0.9753149602
   32      H       0.9891072079    -3.2742264593     1.0309227732
   33      H      -0.3567227907    -4.2769294979     0.2939599010
 ----------------------------------------------------------------
 Molecular Point Group                 C1    NOp =  1
 Largest Abelian Subgroup              C1    NOp =  1
 Nuclear Repulsion Energy =        1106.13376642 hartrees
 There are       59 alpha and       59 beta electrons
 Requested basis set is 6-31G(d)
 There are 97 shells and 265 basis functions

 Total QAlloc Memory Limit   4000 MB
 Mega-Array Size       188 MB
 MEM_STATIC part       192 MB
 A cutoff of  1.0D-08 yielded   3126 shell pairs
 There are     25220 function pairs
 Smallest overlap matrix eigenvalue = 6.96E-04

 Scale SEOQF with 1.000000e-02/1.000000e-01/1.000000e-01

 Standard Electronic Orientation quadrupole field applied
 Nucleus-field energy     =     0.0000000145 hartrees
 Guess from superposition of atomic densities
 Warning:  Energy on first SCF cycle will be non-variational
 SAD guess density has 118.000000 electrons

 -----------------------------------------------------------------------
  General SCF calculation program by
  Eric Jon Sundstrom, Paul Horn, Yuezhi Mao, Dmitri Zuev, Alec White,
  David Stuck, Shaama M.S., Shane Yost, Joonho Lee, David Small,
  Daniel Levine, Susi Lehtola, Hugh Burton, Evgeny Epifanovsky,
  Bang C. Huynh
 -----------------------------------------------------------------------
 Exchange:     0.2000 Hartree-Fock + 0.0800 Slater + 0.7200 B88
 Correlation:  0.1900 VWN1RPA + 0.8100 LYP
 Using SG-1 standard quadrature grid
 A restricted SCF calculation will be
 performed using DIIS
 SCF converges when DIIS error is below 1.0e-05
 ---------------------------------------
  Cycle       Energy         DIIS error
 ---------------------------------------
    1    -945.8856782125      4.90e-02  
    2    -942.1945471704      5.33e-03  
    3    -942.0837984882      6.35e-03  
    4    -942.4548240406      1.29e-03  
    5    -942.4686320601      5.31e-04  
    6    -942.4711861206      1.52e-04  
    7    -942.4713767289      5.69e-05  
    8    -942.4714049644      1.77e-05  
    9    -942.4714076377      3.15e-06  Convergence criterion met
 ---------------------------------------
 SCF time:   CPU 63.97s  wall 64.00s 
 SCF   energy in the final basis set =     -942.4714076377
 Total energy in the final basis set =     -942.4714076377
 
 --------------------------------------------------------------
 
                    Orbital Energies (a.u.)
 --------------------------------------------------------------
 
 Alpha MOs
 -- Occupied --
-88.8944 -10.2150 -10.2133 -10.1962 -10.1951 -10.1940 -10.1930 -10.1835
-10.1804 -10.1798 -10.1780 -10.1763 -10.1711 -10.1705 -10.1702  -7.9566
 -5.9207  -5.9170  -5.9133  -0.8882  -0.8373  -0.8040  -0.7787  -0.7545
 -0.7394  -0.7144  -0.6991  -0.6281  -0.6097  -0.6036  -0.5743  -0.5589
 -0.5425  -0.5092  -0.4913  -0.4779  -0.4606  -0.4441  -0.4426  -0.4337
 -0.4221  -0.4073  -0.3977  -0.3917  -0.3812  -0.3749  -0.3740  -0.3616
 -0.3561  -0.3498  -0.3375  -0.3307  -0.3140  -0.3076  -0.2998  -0.2920
 -0.2654  -0.2392  -0.1984
 -- Virtual --
 -0.0482   0.0103   0.0396   0.0731   0.0829   0.0892   0.0973   0.1167
  0.1206   0.1270   0.1333   0.1495   0.1536   0.1625   0.1677   0.1721
  0.1791   0.1818   0.1863   0.1931   0.2020   0.2038   0.2116   0.2246
  0.2429   0.2486   0.2582   0.2654   0.2759   0.2840   0.2878   0.2965
  0.3258   0.3316   0.3440   0.3469   0.3641   0.3746   0.3908   0.4491
  0.4757   0.4834   0.4955   0.5103   0.5202   0.5277   0.5389   0.5449
  0.5508   0.5543   0.5724   0.5806   0.5916   0.6082   0.6093   0.6174
  0.6213   0.6420   0.6460   0.6545   0.6687   0.6766   0.6847   0.6901
  0.7158   0.7226   0.7330   0.7558   0.7731   0.7829   0.7865   0.7955
  0.8145   0.8246   0.8331   0.8384   0.8587   0.8617   0.8646   0.8770
  0.8836   0.8860   0.8883   0.9037   0.9097   0.9204   0.9292   0.9319
  0.9524   0.9647   0.9722   0.9790   0.9912   0.9984   1.0064   1.0136
  1.0265   1.0355   1.0405   1.0519   1.0718   1.0887   1.1103   1.1137
  1.1302   1.1549   1.2174   1.2270   1.2409   1.2595   1.2843   1.3337
  1.3392   1.3456   1.3644   1.3721   1.4202   1.4336   1.4512   1.4623
  1.4746   1.5162   1.5241   1.5827   1.6000   1.6216   1.6331   1.6369
  1.6779   1.7085   1.7388   1.7399   1.7664   1.7795   1.7963   1.8292
  1.8611   1.8802   1.8959   1.9114   1.9339   1.9578   1.9762   1.9835
  1.9928   2.0112   2.0286   2.0470   2.0517   2.0686   2.0792   2.0887
  2.1370   2.1457   2.1460   2.1773   2.1790   2.1941   2.2368   2.2739
  2.2993   2.3151   2.3201   2.3259   2.3530   2.3551   2.3779   2.3898
  2.4008   2.4218   2.4282   2.4490   2.4671   2.4930   2.4964   2.5697
  2.5928   2.6257   2.6422   2.6745   2.7250   2.7285   2.7454   2.7689
  2.8045   2.8214   2.9069   2.9481   3.0111   3.1360   3.1911   3.9749
  4.1093   4.1455   4.1507   4.1619   4.1879   4.2422   4.2817   4.3290
  4.3707   4.5217   4.5526   4.5952   4.6117   4.7229
 --------------------------------------------------------------
 
          Ground-State Mulliken Net Atomic Charges

     Atom                 Charge (a.u.)
  ----------------------------------------
      1 C                    -0.373619
      2 C                    -0.056208
      3 C                    -0.127714
      4 C                    -0.191226
      5 C                     0.178772
      6 C                    -0.155657
      7 C                    -0.286106
      8 C                    -0.270524
      9 C                    -0.255233
     10 C                    -0.259442
     11 C                    -0.268317
     12 C                    -0.248620
     13 C                    -0.057015
     14 C                    -0.375709
     15 S                     0.234451
     16 H                     0.146015
     17 H                     0.156657
     18 H                     0.136451
     19 H                     0.136710
     20 H                     0.136263
     21 H                     0.137746
     22 H                     0.130610
     23 H                     0.157039
     24 H                     0.127214
     25 H                     0.130200
     26 H                     0.124314
     27 H                     0.145952
     28 H                     0.128556
     29 H                     0.134012
     30 H                     0.128625
     31 H                     0.149528
     32 H                     0.161031
     33 H                     0.145245
  ----------------------------------------
  Sum of atomic charges =     0.000000

 -----------------------------------------------------------------
                    Cartesian Multipole Moments
 -----------------------------------------------------------------
    Charge (ESU x 10^10)
                 0.0000
    Dipole Moment (Debye)
         X      -0.8507      Y       0.7325      Z      -0.3497
       Tot       1.1758
    Quadrupole Moments (Debye-Ang)
        XX     -95.0687     XY       2.6444     YY     -92.8016
        XZ       2.8410     YZ      -1.7373     ZZ    -100.3648
    Octopole Moments (Debye-Ang^2)
       XXX      17.3055    XXY       9.4835    XYY       3.1316
       YYY      -3.9345    XXZ       5.5622    XYZ      -4.8416
       YYZ      -0.1056    XZZ      -7.3072    YZZ      -0.4864
       ZZZ      -0.0944
    Hexadecapole Moments (Debye-Ang^3)
      XXXX   -3309.6926   XXXY      34.8933   XXYY    -783.3428
      XYYY      31.9074   YYYY   -1347.4299   XXXZ      54.8429
      XXYZ      -5.3781   XYYZ       8.2383   YYYZ     -18.0200
      XXZZ    -667.7152   XYZZ      -8.0118   YYZZ    -314.2553
      XZZZ      -2.0896   YZZZ      -2.7457   ZZZZ    -433.8911
 -----------------------------------------------------------------
Archival summary:
1\1\nia2015.scinet.local\SP\ProcedureUnspecified\6-31G*\11418\rhickman\TueFeb815:26:552022TueFeb815:26:552022\0\\#,ProcedureUnspecified,6-31G*,\\0,1\S\C,1,1.73153\C,2,1.36722,1,110.137\H,3,1.07634,2,121.525,1,-178.363,0\C,3,1.41615,2,115.32,1,0.395985,0\C,5,1.37892,3,111.313,2,-1.69554,0\C,2,1.43704,1,122.771,3,-179.949,0\H,7,1.08309,2,114.563,1,179.159,0\C,7,1.32986,2,124.997,1,-0.913792,0\H,9,1.07549,7,121.8,2,-179.975,0\H,9,1.07759,7,121.29,2,-0.0236409,0\C,6,1.44467,5,132.584,3,-174.692,0\H,12,1.07873,6,116.75,5,21.5296,0\C,12,1.33012,6,124.188,5,-160.869,0\H,14,1.07577,12,121.452,6,-177.892,0\H,14,1.07752,12,121.853,6,2.3441,0\C,5,1.51351,3,117.4,2,178.099,0\H,17,1.10002,5,105.609,3,62.039,0\C,17,1.53125,5,118.161,3,-177.822,0\H,19,1.09033,17,110.617,5,-56.413,0\H,19,1.09416,17,107.235,5,-172.299,0\C,19,1.52721,17,112.679,5,68.6289,0\H,22,1.09051,19,110.172,17,-63.1119,0\H,22,1.09259,19,109.364,17,178.492,0\C,22,1.52452,19,110.623,17,57.147,0\H,25,1.09189,22,109.897,19,-177.609,0\H,25,1.09309,22,109.755,19,63.9311,0\C,25,1.52411,22,109.727,19,-56.2736,0\H,28,1.09225,25,110.108,22,179.527,0\H,28,1.0925,25,109.569,22,-61.8858,0\C,28,1.52447,25,110.083,22,58.479,0\H,31,1.08966,28,109.669,25,176.037,0\H,31,1.09306,28,109.065,25,58.5482,0\\\@

 Total job time:  65.16s(wall), 64.20s(cpu) 
 Tue Feb  8 15:26:55 2022

        *************************************************************
        *                                                           *
        *  Thank you very much for using Q-Chem.  Have a nice day.  *
        *                                                           *
        *************************************************************


