27
 energy: -49.338265315453 gnorm: 0.000048636095 xtb: 6.5.0 (unknown)
C           -2.53091978870000       -1.66872928000000       -1.96904296420000
C           -2.71295292570000       -0.86047114970000       -0.93324023620000
C           -1.66344617880000       -0.05765311710000       -0.30154082100000
C           -2.01865487730000        1.19554649740000        0.19278189310000
C           -1.06300316410000        2.04121525250000        0.72445162630000
Cl          -1.53421813810000        3.58629815500000        1.34000502180000
C            0.26708181430000        1.66798674460000        0.76113014060000
C            0.64502817030000        0.41616240690000        0.28443993400000
C            2.05553241070000        0.03730840010000        0.34716183010000
C            2.71703262810000       -0.62100659730000       -0.59047358810000
F            2.28491072810000       -0.99520258570000       -1.78000200300000
F            4.00282971410000       -0.95289210280000       -0.47028325190000
C           -0.32342412620000       -0.47000644350000       -0.21225665720000
O            0.08562497870000       -1.72590312650000       -0.58202776480000
C           -0.39985051590000       -2.79661879660000        0.21526158940000
C            0.21443084450000       -2.79770512120000        1.61119110390000
H           -3.35408196530000       -2.19743299330000       -2.41882793170000
H           -1.55839007460000       -1.82443087740000       -2.40350761040000
H           -3.70954018040000       -0.69717588610000       -0.54115080210000
H           -3.04867181320000        1.51339674030000        0.14130757370000
H            1.01183843430000        2.34071212140000        1.15580757430000
H            2.61482260430000        0.33107861680000        1.22250424880000
H           -0.10914802260000       -3.69642637510000       -0.33136308580000
H           -1.49341301380000       -2.76083304770000        0.28694766070000
H            1.29896533290000       -2.83881068980000        1.54678702050000
H           -0.13937036690000       -3.66304193650000        2.16446332560000
H           -0.06904580170000       -1.89568905660000        2.15046357600000
