23
 energy: -42.295985234211 gnorm: 0.000111888203 xtb: 6.5.0 (unknown)
C           -1.23298524460000        3.73633451780000       -0.02713943790000
C           -1.98633698160000        2.64421577210000        0.01597302300000
C           -1.52114381840000        1.26120499410000        0.01062217930000
C           -2.46933482120000        0.23589880770000        0.00618250700000
C           -2.10240395830000       -1.09948285770000       -0.00080465240000
C           -3.10804452320000       -2.20791119630000       -0.00650077630000
C           -0.74522212470000       -1.39090307460000       -0.00183973170000
F           -0.37203704830000       -2.69183633320000       -0.00810591340000
C            0.24492447410000       -0.40496154140000        0.00417861380000
C            1.63744541270000       -0.82478363590000        0.00368718240000
C            2.72130026510000       -0.06424129940000        0.00127160530000
F            2.79058283760000        1.26227061210000       -0.00107965030000
F            3.95625007500000       -0.55849816910000        0.00039448770000
C           -0.17080580900000        0.92429277690000        0.01082890140000
H           -1.67527442900000        4.71757891770000       -0.02011385200000
H           -0.15815133460000        3.70614223150000       -0.07257935210000
H           -3.06332261630000        2.75227700670000        0.05590531870000
H           -3.52014783170000        0.48760058870000        0.00699230010000
H           -4.11945339350000       -1.81186807970000       -0.00732022960000
H           -2.97500351960000       -2.84104789970000        0.86991431420000
H           -2.97126118840000       -2.83533902120000       -0.88640982960000
H            1.81876082040000       -1.88999246270000        0.00427994520000
H            0.56743765510000        1.70628236790000        0.01889419660000
