
Running Job 1 of 1 fragments/C069/conf-1/spe_input.inp
qchem fragments/C069/conf-1/spe_input.inp_79235.0 /gpfs/fs0/scratch/a/aspuru/rhickman/descriptor_computation/qchem79235/ 0
/scinet/niagara/software/commercial/qc52/exe/qcprog.exe_s fragments/C069/conf-1/spe_input.inp_79235.0 /gpfs/fs0/scratch/a/aspuru/rhickman/descriptor_computation/qchem79235/
                  Welcome to Q-Chem
     A Quantum Leap Into The Future Of Chemistry


 Q-Chem 5.2, Q-Chem, Inc., Pleasanton, CA (2019)

 License issued to: SRG Alan Aspuru-Guzik, University of Toronto

 Yihan Shao,  Zhengting Gan,  E. Epifanovsky,  A. T. B. Gilbert,  M. Wormit,  
 J. Kussmann,  A. W. Lange,  A. Behn,  Jia Deng,  Xintian Feng,  D. Ghosh,  
 M. Goldey,  P. R. Horn,  L. D. Jacobson,  I. Kaliman,  T. Kus,  A. Landau,  
 Jie Liu,  E. I. Proynov,  R. M. Richard,  R. P. Steele,  E. J. Sundstrom,  
 H. L. Woodcock III,  P. M. Zimmerman,  D. Zuev,  B. Albrecht,  E. Alguire,  
 S. A. Baeppler,  D. Barton,  Z. Benda,  Y. A. Bernard,  E. J. Berquist,  
 K. B. Bravaya,  H. Burton,  D. Casanova,  Chun-Min Chang,  Yunqing Chen,  
 A. Chien,  K. D. Closser,  M. P. Coons,  S. Coriani,  S. Dasgupta,  
 A. L. Dempwolff,  M. Diedenhofen,  Hainam Do,  R. G. Edgar,  Po-Tung Fang,  
 S. Faraji,  S. Fatehi,  Qingguo Feng,  K. D. Fenk,  J. Fosso-Tande,  
 J. Gayvert,  Qinghui Ge,  A. Ghysels,  G. Gidofalvi,  J. Gomes,  
 J. Gonthier,  A. Gunina,  D. Hait,  M. W. D. Hanson-Heine,  
 P. H. P. Harbach,  A. W. Hauser,  M. F. Herbst,  J. E. Herr,  
 E. G. Hohenstein,  Z. C. Holden,  Kerwin Hui,  B. C. Huynh,  T.-C. Jagau,  
 Hyunjun Ji,  B. Kaduk,  K. Khistyaev,  Jaehoon Kim,  P. Klunzinger,  K. Koh,  
 D. Kosenkov,  L. Koulias,  T. Kowalczyk,  C. M. Krauter,  A. Kunitsa,  
 Ka Un Lao,  A. Laurent,  K. V. Lawler,  Joonho Lee,  D. Lefrancois,  
 S. Lehtola,  D. S. Levine,  Yi-Pei Li,  You-Sheng Lin,  Fenglai Liu,  
 E. Livshits,  A. Luenser,  P. Manohar,  E. Mansoor,  S. F. Manzer,  
 Shan-Ping Mao,  Yuezhi Mao,  N. Mardirossian,  A. V. Marenich,  
 T. Markovich,  L. A. Martinez-Martinez,  S. A. Maurer,  N. J. Mayhall,  
 S. C. McKenzie,  J.-M. Mewes,  P. Morgante,  A. F. Morrison,  
 J. W. Mullinax,  K. Nanda,  T. S. Nguyen-Beck,  R. Olivares-Amaya,  
 J. A. Parkhill,  Zheng Pei,  T. M. Perrine,  F. Plasser,  P. Pokhilko,  
 S. Prager,  A. Prociuk,  E. Ramos,  D. R. Rehn,  F. Rob,  M. Scheurer,  
 M. Schneider,  N. Sergueev,  S. M. Sharada,  S. Sharma,  D. W. Small,  
 T. Stauch,  T. Stein,  Yu-Chuan Su,  A. J. W. Thom,  A. Tkatchenko,  
 T. Tsuchimochi,  N. M. Tubman,  L. Vogt,  M. L. Vidal,  O. Vydrov,  
 M. A. Watson,  J. Wenzel,  M. de Wergifosse,  T. A. Wesolowski,  A. White,  
 J. Witte,  A. Yamada,  Jun Yang,  K. Yao,  S. Yeganeh,  S. R. Yost,  
 Zhi-Qiang You,  A. Zech,  Igor Ying Zhang,  Xing Zhang,  Yan Zhao,  
 Ying Zhu,  B. R. Brooks,  G. K. L. Chan,  C. J. Cramer,  M. S. Gordon,  
 W. J. Hehre,  A. Klamt,  M. W. Schmidt,  C. D. Sherrill,  D. G. Truhlar,  
 A. Aspuru-Guzik,  R. Baer,  A. T. Bell,  N. A. Besley,  Jeng-Da Chai,  
 A. E. DePrince, III,  R. A. DiStasio Jr.,  A. Dreuw,  B. D. Dunietz,  
 T. R. Furlani,  Chao-Ping Hsu,  Yousung Jung,  Jing Kong,  D. S. Lambrecht,  
 WanZhen Liang,  C. Ochsenfeld,  V. A. Rassolov,  L. V. Slipchenko,  
 J. E. Subotnik,  T. Van Voorhis,  J. M. Herbert,  A. I. Krylov,  
 P. M. W. Gill,  M. Head-Gordon

 Contributors to earlier versions of Q-Chem not listed above: 
 R. D. Adamson,  B. Austin,  J. Baker,  G. J. O. Beran,  K. Brandhorst,  
 S. T. Brown,  E. F. C. Byrd,  A. K. Chakraborty,  C.-L. Cheng,  
 Siu Hung Chien,  D. M. Chipman,  D. L. Crittenden,  H. Dachsel,  
 R. J. Doerksen,  A. D. Dutoi,  L. Fusti-Molnar,  W. A. Goddard III,  
 A. Golubeva-Zadorozhnaya,  S. R. Gwaltney,  G. Hawkins,  A. Heyden,  
 S. Hirata,  G. Kedziora,  F. J. Keil,  C. Kelley,  Jihan Kim,  R. A. King,  
 R. Z. Khaliullin,  P. P. Korambath,  W. Kurlancheek,  A. M. Lee,  M. S. Lee,  
 S. V. Levchenko,  Ching Yeh Lin,  D. Liotard,  R. C. Lochan,  I. Lotan,  
 P. E. Maslen,  N. Nair,  D. P. O'Neill,  D. Neuhauser,  E. Neuscamman,  
 C. M. Oana,  R. Olson,  B. Peters,  R. Peverati,  P. A. Pieniazek,  
 Y. M. Rhee,  J. Ritchie,  M. A. Rohrdanz,  E. Rosta,  N. J. Russ,  
 H. F. Schaefer III,  N. E. Schultz,  N. Shenvi,  A. C. Simmonett,  A. Sodt,  
 D. Stuck,  K. S. Thanthiriwatte,  V. Vanovschi,  Tao Wang,  A. Warshel,  
 C. F. Williams,  Q. Wu,  X. Xu,  W. Zhang

 Please cite Q-Chem as follows:
 Y. Shao et al., Mol. Phys. 113, 184-215 (2015)
 DOI: 10.1080/00268976.2014.952696

 Q-Chem 5.2.1 for Intel X86 EM64T Linux

 Parts of Q-Chem use Armadillo 8.300.2 (Tropical Shenanigans).
 http://arma.sourceforge.net/

 Q-Chem begins on Mon Feb  7 14:27:37 2022  

Host: 
0

     Scratch files written to /gpfs/fs0/scratch/a/aspuru/rhickman/descriptor_computation/qchem79235//
 Jul1719 |scratch|qcdevops|jenkins|workspace|build_RNUM -1
Processing $rem in /scinet/niagara/software/commercial/qc52/config/preferences:
	 MEM_TOTAL  4000 
NAlpha2: 64
NElect   64
Mult     1

Checking the input file for inconsistencies... 	...done.

--------------------------------------------------------------
User input:
--------------------------------------------------------------
$molecule
0 1
C         2.07536024650000    1.86113883170000   -0.28360175670000
C         2.00344398420000    0.63857649500000    0.22790195550000
C         0.87172942030000   -0.25921763230000    0.12680258720000
C         0.96604737470000   -1.67904503230000    0.09219546990000
C        -0.30308022160000   -2.14362558790000   -0.03928610990000
O        -1.18223649950000   -1.13170747980000   -0.07373892550000
C        -0.48177798840000    0.02387897440000    0.02897906910000
C        -1.19250305570000    1.27366221420000    0.10122724060000
C        -2.49658377270000    1.40421972650000   -0.12871563600000
H         2.96041077160000    2.46391319490000   -0.17150536870000
H         1.26884963550000    2.29476307590000   -0.84928459430000
H         2.86199566650000    0.22068933670000    0.73973535310000
H         1.86513455430000   -2.25886447590000    0.14302611050000
H        -0.69797467830000   -3.13796596140000   -0.11268172690000
H        -0.58886561460000    2.12477052160000    0.38106125480000
H        -3.10212732990000    0.56049440660000   -0.41227544690000
H        -2.99229272720000    2.35494949460000   -0.04314334760000
$end

$rem
BASIS = 6-31G*
GUI = 2
METHOD = B3LYP
PRINT_ORBITALS false
MOLDEN_FORMAT false
--------------------------------------------------------------
 ----------------------------------------------------------------
             Standard Nuclear Orientation (Angstroms)
    I     Atom           X                Y                Z
 ----------------------------------------------------------------
    1      C       2.2496497102    -1.5902710079     0.2799430672
    2      C       2.0519203859    -0.3663097080    -0.1936480159
    3      C       0.8235162709     0.3942323616    -0.0955036209
    4      C       0.7552383065     1.8135426798    -0.0124390973
    5      C      -0.5612292206     2.1273544740     0.0982079176
    6      O      -1.3204535365     1.0223064274     0.0752238359
    7      C      -0.4910988030    -0.0427247319    -0.0449948025
    8      C      -1.0534441426    -1.3612513706    -0.1775213581
    9      C      -2.3394876382    -1.6458280001     0.0113007178
   10      H       3.1998458554    -2.0852373924     0.1733948195
   11      H       1.4840443598    -2.1316146088     0.8084144257
   12      H       2.8696920213     0.1633673326    -0.6673629937
   13      H       1.5836901205     2.4923312312    -0.0192060857
   14      H      -1.0680740774     3.0677023442     0.1925238814
   15      H      -0.3505022103    -2.1285871175    -0.4675887262
   16      H      -3.0435755752    -0.8861696451     0.3047984898
   17      H      -2.7218814170    -2.6427117445    -0.1188333448
 ----------------------------------------------------------------
 Molecular Point Group                 C1    NOp =  1
 Largest Abelian Subgroup              C1    NOp =  1
 Nuclear Repulsion Energy =         407.11711528 hartrees
 There are       32 alpha and       32 beta electrons
 Requested basis set is 6-31G(d)
 There are 52 shells and 151 basis functions

 Total QAlloc Memory Limit   4000 MB
 Mega-Array Size       188 MB
 MEM_STATIC part       192 MB
 A cutoff of  1.0D-08 yielded   1112 shell pairs
 There are     10175 function pairs
 Smallest overlap matrix eigenvalue = 6.91E-04

 Scale SEOQF with 1.000000e-01/1.000000e-01/1.000000e+00

 Standard Electronic Orientation quadrupole field applied
 Nucleus-field energy     =     0.0000000128 hartrees
 Guess from superposition of atomic densities
 Warning:  Energy on first SCF cycle will be non-variational
 SAD guess density has 64.000000 electrons

 -----------------------------------------------------------------------
  General SCF calculation program by
  Eric Jon Sundstrom, Paul Horn, Yuezhi Mao, Dmitri Zuev, Alec White,
  David Stuck, Shaama M.S., Shane Yost, Joonho Lee, David Small,
  Daniel Levine, Susi Lehtola, Hugh Burton, Evgeny Epifanovsky,
  Bang C. Huynh
 -----------------------------------------------------------------------
 Exchange:     0.2000 Hartree-Fock + 0.0800 Slater + 0.7200 B88
 Correlation:  0.1900 VWN1RPA + 0.8100 LYP
 Using SG-1 standard quadrature grid
 A restricted SCF calculation will be
 performed using DIIS
 SCF converges when DIIS error is below 1.0e-05
 ---------------------------------------
  Cycle       Energy         DIIS error
 ---------------------------------------
    1    -386.9288244002      6.72e-02  
    2    -384.6860170242      6.66e-03  
    3    -384.6745808350      6.96e-03  
    4    -384.8138338338      1.88e-03  
    5    -384.8235316812      4.78e-04  
    6    -384.8239688967      2.27e-04  
    7    -384.8241026617      5.00e-05  
    8    -384.8241084360      2.41e-05  
    9    -384.8241100477      3.00e-06  Convergence criterion met
 ---------------------------------------
 SCF time:   CPU 14.72s  wall 15.00s 
 SCF   energy in the final basis set =     -384.8241100477
 Total energy in the final basis set =     -384.8241100477
 
 --------------------------------------------------------------
 
                    Orbital Energies (a.u.)
 --------------------------------------------------------------
 
 Alpha MOs
 -- Occupied --
-19.2164 -10.2383 -10.2361 -10.1942 -10.1924 -10.1910 -10.1828 -10.1797
-10.1774  -1.1206  -0.8260  -0.7983  -0.7582  -0.7191  -0.6248  -0.6134
 -0.5806  -0.5292  -0.5107  -0.4665  -0.4593  -0.4482  -0.4457  -0.4158
 -0.3961  -0.3723  -0.3638  -0.3525  -0.3144  -0.2952  -0.2508  -0.1996
 -- Virtual --
 -0.0345   0.0211   0.0597   0.1092   0.1179   0.1300   0.1406   0.1500
  0.1630   0.1727   0.1893   0.1940   0.2267   0.2408   0.3040   0.3226
  0.3388   0.3519   0.3868   0.4177   0.4403   0.4883   0.5160   0.5224
  0.5532   0.5566   0.5738   0.5871   0.5946   0.6086   0.6190   0.6335
  0.6419   0.6562   0.6804   0.6916   0.6985   0.7033   0.7611   0.8181
  0.8328   0.8573   0.8616   0.8707   0.8833   0.9137   0.9175   0.9392
  0.9579   0.9707   0.9974   1.0053   1.0345   1.0631   1.0900   1.1151
  1.1494   1.1881   1.2146   1.2662   1.2813   1.3473   1.3648   1.3950
  1.4286   1.4515   1.4629   1.4914   1.5304   1.5540   1.5949   1.6222
  1.6841   1.6850   1.7961   1.8361   1.8627   1.9085   1.9117   1.9581
  1.9838   1.9980   2.0530   2.0858   2.1352   2.1697   2.1748   2.1987
  2.2344   2.2457   2.2621   2.3082   2.3376   2.3542   2.3974   2.4168
  2.4938   2.5882   2.5991   2.6350   2.6790   2.7178   2.7443   2.7788
  2.8163   2.8572   2.9813   3.0700   3.2051   3.2977   4.0015   4.1154
  4.1237   4.1575   4.2198   4.2882   4.3649   4.4769   4.7038
 --------------------------------------------------------------
 
          Ground-State Mulliken Net Atomic Charges

     Atom                 Charge (a.u.)
  ----------------------------------------
      1 C                    -0.350799
      2 C                    -0.109542
      3 C                     0.064181
      4 C                    -0.213943
      5 C                     0.081270
      6 O                    -0.435337
      7 C                     0.266775
      8 C                    -0.110808
      9 C                    -0.354612
     10 H                     0.142491
     11 H                     0.149053
     12 H                     0.133238
     13 H                     0.139703
     14 H                     0.155190
     15 H                     0.145263
     16 H                     0.155144
     17 H                     0.142735
  ----------------------------------------
  Sum of atomic charges =     0.000000

 -----------------------------------------------------------------
                    Cartesian Multipole Moments
 -----------------------------------------------------------------
    Charge (ESU x 10^10)
                 0.0000
    Dipole Moment (Debye)
         X       0.6427      Y       0.4420      Z      -0.0586
       Tot       0.7823
    Quadrupole Moments (Debye-Ang)
        XX     -49.3521     XY       0.2445     YY     -45.3242
        XZ      -1.2808     YZ       0.0597     ZZ     -55.5883
    Octopole Moments (Debye-Ang^2)
       XXX      -0.2063    XXY       0.4110    XYY      -4.1413
       YYY      13.4429    XXZ      -1.4663    XYZ      -1.9818
       YYZ       1.4413    XZZ      -2.2224    YZZ       1.7675
       ZZZ       0.4590
    Hexadecapole Moments (Debye-Ang^3)
      XXXX    -781.5002   XXXY      -2.9317   XXYY    -228.1986
      XYYY     -11.4184   YYYY    -636.4272   XXXZ     -16.3620
      XXYZ      -1.5939   XYYZ       2.6186   YYYZ       5.1679
      XXZZ    -159.6991   XYZZ      -4.3515   YYZZ    -138.9041
      XZZZ      -2.3065   YZZZ      -0.2116   ZZZZ     -68.2662
 -----------------------------------------------------------------
Archival summary:
1\1\nia1977.scinet.local\SP\ProcedureUnspecified\6-31G*\188\rhickman\MonFeb714:27:522022MonFeb714:27:522022\0\\#,ProcedureUnspecified,6-31G*,\\0,1\O\C,1,1.34093\H,2,1.0724,1,117.163\C,1,1.3552,2,107.618,3,-179.861,0\C,2,1.35787,1,110.921,3,-179.785,0\H,5,1.07104,2,127.154,1,-179.751,0\C,4,1.38625,1,109.625,2,0.180386,0\C,4,1.43955,1,119.269,2,-176.202,0\H,8,1.08031,4,114.905,1,168.147,0\C,8,1.33062,4,124.082,1,-10.6855,0\H,10,1.07561,8,121.645,4,178.67,0\H,10,1.07655,8,121.325,4,-1.52102,0\C,7,1.44811,4,129.894,1,178.66,0\H,13,1.08338,7,114.404,4,152.702,0\C,13,1.3272,7,125.912,4,-29.9187,0\H,15,1.07633,13,122.212,7,-0.886332,0\H,15,1.07667,13,121.341,7,-179.413,0\\\@

 Total job time:  14.89s(wall), 14.83s(cpu) 
 Mon Feb  7 14:27:52 2022

        *************************************************************
        *                                                           *
        *  Thank you very much for using Q-Chem.  Have a nice day.  *
        *                                                           *
        *************************************************************


