24
 energy: -40.181593639860 gnorm: 0.000093055186 xtb: 6.4.1 (23d549d)
C        -5.58345462770000    1.07875010330000    0.12644677090000
C        -4.91822187010000   -0.06526213050000    0.00824982570000
C        -3.47322240890000   -0.23553501650000   -0.01451945830000
C        -2.57338305010000    0.82919414380000    0.08832779470000
C        -1.21335108910000    0.61907833890000    0.06303862940000
C        -0.68263843830000   -0.66950055050000   -0.06660746790000
C         0.73571683300000   -0.94835086590000   -0.09743490130000
C         1.73590933400000   -0.05559941910000   -0.01148415800000
C         3.11981473410000   -0.44008827580000   -0.05129637380000
C         4.12576443280000    0.42371553860000    0.03187946020000
F         4.00907617040000    1.74203748360000    0.16094014780000
F         5.41332076580000    0.09145873950000   -0.00203499820000
C        -1.58416378240000   -1.73480052130000   -0.17023317270000
C        -2.94419261000000   -1.52250263370000   -0.14481200400000
H        -6.65966716450000    1.10050160750000    0.13336048210000
H        -5.09406294680000    2.03279468350000    0.22038979950000
H        -5.47918867500000   -0.98802127050000   -0.08227305620000
H        -2.94562021280000    1.83684325070000    0.18975860090000
H        -0.55097703160000    1.46685189180000    0.14534921020000
H         0.99405725420000   -1.99573699240000   -0.20106768560000
H         1.53983112250000    1.00098978990000    0.09281853470000
H         3.37098522190000   -1.48456027570000   -0.15368975970000
H        -1.20227695680000   -2.74108488760000   -0.27174753380000
H        -3.61747568410000   -2.36445364340000   -0.22666388340000
