23
 energy: -50.744442259891 gnorm: 0.000128946644 xtb: 6.5.0 (unknown)
C            2.54100366580000       -3.60230661440000        0.39821185260000
C            2.32474821760000       -2.40730451400000       -0.13404039080000
C            1.05369180510000       -1.68533527350000       -0.04904447000000
C           -0.14652106890000       -2.38781097670000       -0.12774456620000
C           -1.36466401950000       -1.73903051140000       -0.09808395080000
C           -1.38968796000000       -0.35438497410000        0.00443455070000
C           -2.70038330730000        0.37612047740000        0.07114273310000
F           -3.71681632360000       -0.32309625130000       -0.45479185530000
F           -3.05585054760000        0.65271098480000        1.34318584090000
F           -2.67362813470000        1.55358133960000       -0.57059886870000
C           -0.21100644390000        0.36919599110000        0.09294752240000
C            1.01921205150000       -0.28229241520000        0.06819518330000
C            2.26590901160000        0.46050921920000        0.22244655710000
C            2.47739120150000        1.72659449010000       -0.10460056270000
F            1.62515004470000        2.56841077120000       -0.66871626160000
F            3.64135501490000        2.34034124530000        0.07866589190000
H            3.48991585540000       -4.10026081280000        0.29915357910000
H            1.78875706880000       -4.11747193280000        0.97166255640000
H            3.11603077630000       -1.91069552390000       -0.67930589950000
H           -0.11902260590000       -3.46083122650000       -0.23570586700000
H           -2.28668525650000       -2.29512128410000       -0.16437441030000
H           -0.25908842270000        1.44169218490000        0.19370565930000
H            3.10870439760000       -0.06154681760000        0.64895326050000
