
Running Job 1 of 1 fragments/C001/conf-0/spe_input.inp
qchem fragments/C001/conf-0/spe_input.inp_129138.0 /gpfs/fs0/scratch/a/aspuru/rhickman/descriptor_computation/qchem129138/ 0
/scinet/niagara/software/commercial/qc52/exe/qcprog.exe_s fragments/C001/conf-0/spe_input.inp_129138.0 /gpfs/fs0/scratch/a/aspuru/rhickman/descriptor_computation/qchem129138/
                  Welcome to Q-Chem
     A Quantum Leap Into The Future Of Chemistry


 Q-Chem 5.2, Q-Chem, Inc., Pleasanton, CA (2019)

 License issued to: SRG Alan Aspuru-Guzik, University of Toronto

 Yihan Shao,  Zhengting Gan,  E. Epifanovsky,  A. T. B. Gilbert,  M. Wormit,  
 J. Kussmann,  A. W. Lange,  A. Behn,  Jia Deng,  Xintian Feng,  D. Ghosh,  
 M. Goldey,  P. R. Horn,  L. D. Jacobson,  I. Kaliman,  T. Kus,  A. Landau,  
 Jie Liu,  E. I. Proynov,  R. M. Richard,  R. P. Steele,  E. J. Sundstrom,  
 H. L. Woodcock III,  P. M. Zimmerman,  D. Zuev,  B. Albrecht,  E. Alguire,  
 S. A. Baeppler,  D. Barton,  Z. Benda,  Y. A. Bernard,  E. J. Berquist,  
 K. B. Bravaya,  H. Burton,  D. Casanova,  Chun-Min Chang,  Yunqing Chen,  
 A. Chien,  K. D. Closser,  M. P. Coons,  S. Coriani,  S. Dasgupta,  
 A. L. Dempwolff,  M. Diedenhofen,  Hainam Do,  R. G. Edgar,  Po-Tung Fang,  
 S. Faraji,  S. Fatehi,  Qingguo Feng,  K. D. Fenk,  J. Fosso-Tande,  
 J. Gayvert,  Qinghui Ge,  A. Ghysels,  G. Gidofalvi,  J. Gomes,  
 J. Gonthier,  A. Gunina,  D. Hait,  M. W. D. Hanson-Heine,  
 P. H. P. Harbach,  A. W. Hauser,  M. F. Herbst,  J. E. Herr,  
 E. G. Hohenstein,  Z. C. Holden,  Kerwin Hui,  B. C. Huynh,  T.-C. Jagau,  
 Hyunjun Ji,  B. Kaduk,  K. Khistyaev,  Jaehoon Kim,  P. Klunzinger,  K. Koh,  
 D. Kosenkov,  L. Koulias,  T. Kowalczyk,  C. M. Krauter,  A. Kunitsa,  
 Ka Un Lao,  A. Laurent,  K. V. Lawler,  Joonho Lee,  D. Lefrancois,  
 S. Lehtola,  D. S. Levine,  Yi-Pei Li,  You-Sheng Lin,  Fenglai Liu,  
 E. Livshits,  A. Luenser,  P. Manohar,  E. Mansoor,  S. F. Manzer,  
 Shan-Ping Mao,  Yuezhi Mao,  N. Mardirossian,  A. V. Marenich,  
 T. Markovich,  L. A. Martinez-Martinez,  S. A. Maurer,  N. J. Mayhall,  
 S. C. McKenzie,  J.-M. Mewes,  P. Morgante,  A. F. Morrison,  
 J. W. Mullinax,  K. Nanda,  T. S. Nguyen-Beck,  R. Olivares-Amaya,  
 J. A. Parkhill,  Zheng Pei,  T. M. Perrine,  F. Plasser,  P. Pokhilko,  
 S. Prager,  A. Prociuk,  E. Ramos,  D. R. Rehn,  F. Rob,  M. Scheurer,  
 M. Schneider,  N. Sergueev,  S. M. Sharada,  S. Sharma,  D. W. Small,  
 T. Stauch,  T. Stein,  Yu-Chuan Su,  A. J. W. Thom,  A. Tkatchenko,  
 T. Tsuchimochi,  N. M. Tubman,  L. Vogt,  M. L. Vidal,  O. Vydrov,  
 M. A. Watson,  J. Wenzel,  M. de Wergifosse,  T. A. Wesolowski,  A. White,  
 J. Witte,  A. Yamada,  Jun Yang,  K. Yao,  S. Yeganeh,  S. R. Yost,  
 Zhi-Qiang You,  A. Zech,  Igor Ying Zhang,  Xing Zhang,  Yan Zhao,  
 Ying Zhu,  B. R. Brooks,  G. K. L. Chan,  C. J. Cramer,  M. S. Gordon,  
 W. J. Hehre,  A. Klamt,  M. W. Schmidt,  C. D. Sherrill,  D. G. Truhlar,  
 A. Aspuru-Guzik,  R. Baer,  A. T. Bell,  N. A. Besley,  Jeng-Da Chai,  
 A. E. DePrince, III,  R. A. DiStasio Jr.,  A. Dreuw,  B. D. Dunietz,  
 T. R. Furlani,  Chao-Ping Hsu,  Yousung Jung,  Jing Kong,  D. S. Lambrecht,  
 WanZhen Liang,  C. Ochsenfeld,  V. A. Rassolov,  L. V. Slipchenko,  
 J. E. Subotnik,  T. Van Voorhis,  J. M. Herbert,  A. I. Krylov,  
 P. M. W. Gill,  M. Head-Gordon

 Contributors to earlier versions of Q-Chem not listed above: 
 R. D. Adamson,  B. Austin,  J. Baker,  G. J. O. Beran,  K. Brandhorst,  
 S. T. Brown,  E. F. C. Byrd,  A. K. Chakraborty,  C.-L. Cheng,  
 Siu Hung Chien,  D. M. Chipman,  D. L. Crittenden,  H. Dachsel,  
 R. J. Doerksen,  A. D. Dutoi,  L. Fusti-Molnar,  W. A. Goddard III,  
 A. Golubeva-Zadorozhnaya,  S. R. Gwaltney,  G. Hawkins,  A. Heyden,  
 S. Hirata,  G. Kedziora,  F. J. Keil,  C. Kelley,  Jihan Kim,  R. A. King,  
 R. Z. Khaliullin,  P. P. Korambath,  W. Kurlancheek,  A. M. Lee,  M. S. Lee,  
 S. V. Levchenko,  Ching Yeh Lin,  D. Liotard,  R. C. Lochan,  I. Lotan,  
 P. E. Maslen,  N. Nair,  D. P. O'Neill,  D. Neuhauser,  E. Neuscamman,  
 C. M. Oana,  R. Olson,  B. Peters,  R. Peverati,  P. A. Pieniazek,  
 Y. M. Rhee,  J. Ritchie,  M. A. Rohrdanz,  E. Rosta,  N. J. Russ,  
 H. F. Schaefer III,  N. E. Schultz,  N. Shenvi,  A. C. Simmonett,  A. Sodt,  
 D. Stuck,  K. S. Thanthiriwatte,  V. Vanovschi,  Tao Wang,  A. Warshel,  
 C. F. Williams,  Q. Wu,  X. Xu,  W. Zhang

 Please cite Q-Chem as follows:
 Y. Shao et al., Mol. Phys. 113, 184-215 (2015)
 DOI: 10.1080/00268976.2014.952696

 Q-Chem 5.2.1 for Intel X86 EM64T Linux

 Parts of Q-Chem use Armadillo 8.300.2 (Tropical Shenanigans).
 http://arma.sourceforge.net/

 Q-Chem begins on Mon Feb  7 16:25:21 2022  

Host: 
0

     Scratch files written to /gpfs/fs0/scratch/a/aspuru/rhickman/descriptor_computation/qchem129138//
 Jul1719 |scratch|qcdevops|jenkins|workspace|build_RNUM -1
Processing $rem in /scinet/niagara/software/commercial/qc52/config/preferences:
	 MEM_TOTAL  4000 
NAlpha2: 110
NElect   110
Mult     1

Checking the input file for inconsistencies... 	...done.

--------------------------------------------------------------
User input:
--------------------------------------------------------------
$molecule
0 1
C        -5.84870562200000    0.79178183480000   -0.22845322720000
C        -5.00372999040000   -0.16581241060000    0.13588467700000
C        -3.54910303940000   -0.11447290770000    0.08290752350000
C        -2.83796742460000    1.00677485570000   -0.34873729020000
C        -1.45976153020000    1.00537250360000   -0.37719686770000
C        -0.73333865390000   -0.11812761310000    0.01684472370000
C         0.73334917860000   -0.11801511240000   -0.01848852600000
C         1.45945731240000    1.00585253550000    0.37508492530000
C         2.83767678260000    1.00731732960000    0.34747559380000
C         3.54914549270000   -0.11424545730000   -0.08279932740000
C         5.00382193380000   -0.16566560570000   -0.13434080240000
C         5.84848471210000    0.79151237730000    0.23184095420000
C         2.81783344050000   -1.23549617760000   -0.48108558110000
C         1.43947668130000   -1.24109243890000   -0.44636140020000
C        -1.43914350660000   -1.24103248350000    0.44570452590000
C        -2.81747708130000   -1.23549993010000    0.48125088640000
H        -6.91395386580000    0.65640410440000   -0.15158634970000
H        -5.52341717630000    1.74184786360000   -0.61618541340000
H        -5.40471248550000   -1.09862895550000    0.51495838280000
H        -3.36880077510000    1.89080932300000   -0.66692132330000
H        -0.93288174380000    1.87970780920000   -0.73162811060000
H         0.93230223260000    1.88042516660000    0.72850843690000
H         3.36826263940000    1.89164209060000    0.66525662090000
H         5.40514238710000   -1.09814386670000   -0.51382329660000
H         5.52280680350000    1.74129948960000    0.61998863810000
H         6.91382115410000    0.65604316860000    0.15623757750000
H         3.34504689730000   -2.11513741370000   -0.82412192010000
H         0.89879751630000   -2.11659964180000   -0.77597640220000
H        -0.89821632560000   -2.11627151440000    0.77562139420000
H        -3.34441993260000   -2.11492382700000    0.82526330360000
$end

$rem
BASIS = 6-31G*
GUI = 2
METHOD = B3LYP
PRINT_ORBITALS false
MOLDEN_FORMAT false
--------------------------------------------------------------
 ----------------------------------------------------------------
             Standard Nuclear Orientation (Angstroms)
    I     Atom           X                Y                Z
 ----------------------------------------------------------------
    1      C       5.8488993305    -0.7841918347    -0.2234868597
    2      C       5.0036108954     0.1734028562     0.1401235562
    3      C       3.5490297691     0.1220591117     0.0859067988
    4      C       2.8382653315    -0.9991937132    -0.3463358086
    5      C       1.4600841946    -0.9977952199    -0.3759702420
    6      C       0.7333227125     0.1257058750     0.0174436889
    7      C      -0.7333344669     0.1255892306    -0.0191398298
    8      C      -1.4597748711    -0.9982774416     0.3738227839
    9      C      -2.8379703010    -0.9997460883     0.3450386057
   10      C      -3.5490749260     0.1218116463    -0.0858509145
   11      C      -5.0037070377     0.1732275634    -0.1386327931
   12      C      -5.8486791335    -0.7839499595     0.2268358457
   13      C      -2.8174265809     1.2430613700    -0.4835218735
   14      C      -1.4390999381     1.2486615366    -0.4476227619
   15      C       1.4387587597     1.2486157723     0.4468967293
   16      C       2.8170615466     1.2430871302     0.4836180825
   17      H       6.9140813042    -0.6488107177    -0.1457129332
   18      H       5.5239440362    -1.7342615800    -0.6114891999
   19      H       5.4042676382     1.1062232543     0.5195320718
   20      H       3.3693720613    -1.8832291180    -0.6640607036
   21      H       0.9335090452    -1.8721345305    -0.7308440560
   22      H      -0.9329189496    -1.8728460743     0.7277019842
   23      H      -3.3688245225    -1.8840699140     0.6623737317
   24      H      -5.4047063173     1.1057019673    -0.5184641250
   25      H      -5.5233297120    -1.7337333512     0.6152680100
   26      H      -6.9139510979    -0.6484841284     0.1503233492
   27      H      -3.3443497473     2.1226986840    -0.8270139922
   28      H      -0.8981423008     2.1241677438    -0.7767831896
   29      H       0.8975482246     2.1238558003     0.7763459156
   30      H       3.3437086289     2.1225149555     0.8280730908
 ----------------------------------------------------------------
 Molecular Point Group                 C1    NOp =  1
 Largest Abelian Subgroup              C1    NOp =  1
 Nuclear Repulsion Energy =         923.52696506 hartrees
 There are       55 alpha and       55 beta electrons
 Requested basis set is 6-31G(d)
 There are 92 shells and 268 basis functions

 Total QAlloc Memory Limit   4000 MB
 Mega-Array Size       188 MB
 MEM_STATIC part       192 MB
 A cutoff of  1.0D-08 yielded   2394 shell pairs
 There are     22105 function pairs
 Smallest overlap matrix eigenvalue = 3.76E-04

 Scale SEOQF with 1.000000e-02/1.000000e-01/1.000000e+00

 Standard Electronic Orientation quadrupole field applied
 Nucleus-field energy     =    -0.0000000034 hartrees
 Guess from superposition of atomic densities
 Warning:  Energy on first SCF cycle will be non-variational
 SAD guess density has 110.000000 electrons

 -----------------------------------------------------------------------
  General SCF calculation program by
  Eric Jon Sundstrom, Paul Horn, Yuezhi Mao, Dmitri Zuev, Alec White,
  David Stuck, Shaama M.S., Shane Yost, Joonho Lee, David Small,
  Daniel Levine, Susi Lehtola, Hugh Burton, Evgeny Epifanovsky,
  Bang C. Huynh
 -----------------------------------------------------------------------
 Exchange:     0.2000 Hartree-Fock + 0.0800 Slater + 0.7200 B88
 Correlation:  0.1900 VWN1RPA + 0.8100 LYP
 Using SG-1 standard quadrature grid
 A restricted SCF calculation will be
 performed using DIIS
 SCF converges when DIIS error is below 1.0e-05
 ---------------------------------------
  Cycle       Energy         DIIS error
 ---------------------------------------
    1    -622.0072184663      5.01e-02  
    2    -617.8751712275      4.73e-03  
    3    -617.9183717497      4.34e-03  
    4    -618.1018033946      4.16e-04  
    5    -618.1018601539      3.90e-04  
    6    -618.1034133583      6.80e-05  
    7    -618.1034490447      3.38e-05  
    8    -618.1034597079      6.47e-06  Convergence criterion met
 ---------------------------------------
 SCF time:   CPU 41.78s  wall 42.00s 
 SCF   energy in the final basis set =     -618.1034597079
 Total energy in the final basis set =     -618.1034597079
 
 --------------------------------------------------------------
 
                    Orbital Energies (a.u.)
 --------------------------------------------------------------
 
 Alpha MOs
 -- Occupied --
-10.1948 -10.1945 -10.1938 -10.1938 -10.1896 -10.1896 -10.1870 -10.1870
-10.1869 -10.1869 -10.1864 -10.1864 -10.1859 -10.1859 -10.1791 -10.1791
 -0.8749  -0.8569  -0.8083  -0.7824  -0.7534  -0.7457  -0.7437  -0.7068
 -0.6417  -0.6213  -0.6087  -0.5895  -0.5639  -0.5569  -0.5258  -0.4905
 -0.4848  -0.4644  -0.4577  -0.4431  -0.4429  -0.4246  -0.4221  -0.4151
 -0.4145  -0.3907  -0.3809  -0.3705  -0.3669  -0.3505  -0.3449  -0.3374
 -0.3319  -0.3130  -0.2893  -0.2537  -0.2534  -0.2367  -0.2054
 -- Virtual --
 -0.0476  -0.0149  -0.0008   0.0037   0.0527   0.0827   0.1031   0.1039
  0.1099   0.1159   0.1275   0.1376   0.1492   0.1668   0.1685   0.1832
  0.1935   0.1938   0.2090   0.2138   0.2291   0.2458   0.2565   0.2583
  0.2964   0.3095   0.3104   0.3291   0.3384   0.3551   0.3603   0.3700
  0.3827   0.4247   0.4482   0.4485   0.4967   0.5101   0.5181   0.5213
  0.5312   0.5319   0.5518   0.5518   0.5673   0.5687   0.5689   0.5847
  0.5931   0.5933   0.5980   0.5984   0.6011   0.6024   0.6059   0.6178
  0.6203   0.6321   0.6385   0.6468   0.6525   0.6615   0.6833   0.6905
  0.7016   0.7058   0.7120   0.7351   0.7516   0.7939   0.8039   0.8065
  0.8195   0.8317   0.8372   0.8482   0.8551   0.8683   0.8717   0.8856
  0.8923   0.8936   0.9003   0.9303   0.9422   0.9626   0.9665   0.9746
  0.9817   0.9858   0.9948   0.9972   1.0130   1.0381   1.0566   1.0803
  1.0925   1.1085   1.1106   1.1416   1.1662   1.1898   1.1905   1.1933
  1.2140   1.2544   1.2774   1.2881   1.3006   1.3239   1.3246   1.3406
  1.3904   1.4188   1.4392   1.4485   1.4588   1.4697   1.4813   1.4834
  1.5050   1.5077   1.5079   1.5128   1.5261   1.5284   1.5410   1.6779
  1.6781   1.7057   1.7351   1.7882   1.7960   1.8090   1.8193   1.8338
  1.8417   1.8577   1.9159   1.9162   1.9439   1.9701   1.9840   1.9874
  2.0024   2.0039   2.0104   2.0467   2.0489   2.0606   2.1140   2.1236
  2.1361   2.1382   2.1448   2.1572   2.1737   2.1777   2.2331   2.2439
  2.2548   2.2630   2.2729   2.3231   2.3247   2.3301   2.3375   2.3571
  2.3827   2.3976   2.4209   2.5186   2.5243   2.5355   2.5783   2.6048
  2.6263   2.6295   2.6565   2.6774   2.6849   2.6945   2.7079   2.7423
  2.7860   2.7983   2.8046   2.8794   2.9120   2.9474   2.9592   3.0097
  3.0821   3.1743   3.2615   3.4162   3.5099   4.0911   4.0934   4.1208
  4.1229   4.1280   4.1328   4.1539   4.1681   4.2403   4.2784   4.3327
  4.3477   4.4131   4.5297   4.7130   4.8059
 --------------------------------------------------------------
 
          Ground-State Mulliken Net Atomic Charges

     Atom                 Charge (a.u.)
  ----------------------------------------
      1 C                    -0.353182
      2 C                    -0.114341
      3 C                     0.183583
      4 C                    -0.189607
      5 C                    -0.173665
      6 C                     0.089870
      7 C                     0.089871
      8 C                    -0.173638
      9 C                    -0.189600
     10 C                     0.183571
     11 C                    -0.114346
     12 C                    -0.353175
     13 C                    -0.204715
     14 C                    -0.171474
     15 C                    -0.171448
     16 C                    -0.204718
     17 H                     0.144245
     18 H                     0.142418
     19 H                     0.126442
     20 H                     0.127357
     21 H                     0.132531
     22 H                     0.132529
     23 H                     0.127357
     24 H                     0.126446
     25 H                     0.142417
     26 H                     0.144244
     27 H                     0.128164
     28 H                     0.132349
     29 H                     0.132351
     30 H                     0.128164
  ----------------------------------------
  Sum of atomic charges =     0.000000

 -----------------------------------------------------------------
                    Cartesian Multipole Moments
 -----------------------------------------------------------------
    Charge (ESU x 10^10)
                 0.0000
    Dipole Moment (Debye)
         X      -0.0001      Y       0.0703      Z       0.0004
       Tot       0.0703
    Quadrupole Moments (Debye-Ang)
        XX     -85.0399     XY      -0.0028     YY     -84.5489
        XZ       0.4581     YZ       0.0019     ZZ     -97.8843
    Octopole Moments (Debye-Ang^2)
       XXX      -0.0063    XXY       1.4247    XYY       0.0029
       YYY       0.2876    XXZ       0.0447    XYZ      18.9742
       YYZ       0.0015    XZZ      -0.0008    YZZ       0.4961
       ZZZ      -0.0017
    Hexadecapole Moments (Debye-Ang^3)
      XXXX   -6399.8315   XXXY      -0.1391   XXYY   -1178.9626
      XYYY      -0.0165   YYYY    -592.8345   XXXZ      17.2919
      XXYZ      -0.0385   XYYZ      -4.3368   YYYZ       0.0072
      XXZZ   -1276.0115   XYZZ       0.0238   YYZZ    -131.4153
      XZZZ       1.6683   YZZZ       0.0086   ZZZZ    -180.3962
 -----------------------------------------------------------------
Archival summary:
1\1\nia1977.scinet.local\SP\ProcedureUnspecified\6-31G*\1614\rhickman\MonFeb716:26:032022MonFeb716:26:032022\0\\#,ProcedureUnspecified,6-31G*,\\0,1\C\C,1,1.39391\H,2,1.08051,1,119.537\C,2,1.37881,1,120.722,3,178.559,0\H,4,1.08139,2,119.476,1,-179.508,0\C,1,1.39471,2,118.173,3,-178.717,0\H,6,1.08059,1,119.373,2,-178.813,0\C,6,1.3785,1,121.045,2,-0.23407,0\H,8,1.07914,6,119.114,1,-179.585,0\C,8,1.39615,6,120.985,1,0.368202,0\C,10,1.4565,8,123.245,6,179.878,0\H,11,1.08378,10,114.368,8,-178.585,0\C,11,1.32806,10,126.871,8,1.59095,0\H,13,1.07649,11,122.882,10,0.00394108,0\H,13,1.07657,11,121.287,10,179.919,0\C,1,1.46711,2,120.915,3,1.28071,0\C,16,1.39391,1,120.909,2,40.2255,0\H,17,1.0805,16,119.537,1,1.25285,0\C,17,1.3788,16,120.722,1,179.8,0\H,19,1.08139,17,119.476,16,-179.494,0\C,16,1.39471,1,120.919,2,-139.8,0\H,21,1.0806,16,119.373,1,1.22798,0\C,21,1.3785,16,121.045,1,179.809,0\H,23,1.07914,21,119.114,16,-179.585,0\C,23,1.39615,21,120.985,16,0.369002,0\C,25,1.4565,23,123.247,21,179.854,0\H,26,1.0838,25,114.366,23,-178.671,0\C,26,1.32805,25,126.873,23,1.4976,0\H,28,1.07646,26,122.884,25,0.0184322,0\H,28,1.07656,26,121.286,25,179.939,0\\\@

 Total job time:  42.14s(wall), 42.01s(cpu) 
 Mon Feb  7 16:26:03 2022

        *************************************************************
        *                                                           *
        *  Thank you very much for using Q-Chem.  Have a nice day.  *
        *                                                           *
        *************************************************************


