47
 energy: -92.146021592565 gnorm: 0.000133208226 xtb: 6.4.1 (23d549d)
C        -1.20952874990000   -1.49456779440000   -3.19568736000000
O        -0.26459688450000   -1.89640577700000   -2.21480339100000
C        -0.66188706260000   -2.86828301650000   -1.38107787180000
C         0.40918846910000   -3.23752774950000   -0.41465373170000
C         1.16397056560000   -2.28488012750000    0.28243406690000
N         0.87009302010000   -0.91660129430000    0.19884248740000
C         1.90850953080000    0.00437533660000    0.11543205530000
C         1.80001724400000    1.25614549430000    0.72100487650000
C         2.84452675360000    2.16137945970000    0.62263006110000
C         2.68031029430000    3.49052739500000    1.30221726270000
F         1.53519168240000    4.10349843680000    0.94983462000000
F         2.63518943240000    3.36968626610000    2.64420202310000
F         3.66940297240000    4.35305803570000    1.03591045510000
C         4.01203889010000    1.84554203120000   -0.05725836230000
C         4.11860805940000    0.59752076750000   -0.65079834440000
C         3.08405984860000   -0.31213717170000   -0.57196308020000
C        -0.46538570640000   -0.49705860400000    0.21779712620000
C        -1.41300071400000   -1.19696423270000    0.96518103550000
C        -2.73380870300000   -0.80683757760000    0.95319822070000
C        -3.15924653550000    0.29226097850000    0.20230091530000
C        -4.56959251950000    0.63600500260000    0.22469929620000
C        -5.20035749610000    1.57304797410000   -0.46873513440000
F        -4.68702531190000    2.42050808840000   -1.35400972810000
F        -6.50940911650000    1.79652696840000   -0.36810588910000
C        -2.20139245250000    0.99800623080000   -0.53097461580000
C        -0.87919219230000    0.60973606780000   -0.52432218690000
C         2.19152314300000   -2.72186885500000    1.11827313580000
C         2.45695709980000   -4.06919654490000    1.26489274960000
C         1.68453701000000   -5.01134602580000    0.60280435050000
C         0.66166776080000   -4.59195605660000   -0.22649242870000
O        -1.73205665850000   -3.41457684400000   -1.45487284410000
H        -0.69920567000000   -0.77793928340000   -3.83347564680000
H        -2.07505174660000   -1.03247157580000   -2.71648801380000
H        -1.54387593110000   -2.35773767620000   -3.77452371970000
H         0.90834478940000    1.52061900210000    1.26905291290000
H         4.81587876660000    2.56077023270000   -0.12195034020000
H         5.01733283260000    0.33838398190000   -1.18858751310000
H         3.16998918450000   -1.27595386640000   -1.05032471590000
H        -1.10884333070000   -2.04881152110000    1.55484195770000
H        -3.45281802450000   -1.36343313440000    1.53492548830000
H        -5.19720253260000    0.05106272980000    0.88135600040000
H        -2.48679539700000    1.85274722910000   -1.12163113110000
H        -0.15804024050000    1.15407073460000   -1.11500462300000
H         2.77175147360000   -1.99053556870000    1.66141877090000
H         3.25738039390000   -4.38587708280000    1.91633132620000
H         1.87872759540000   -6.06424143770000    0.73371038260000
H         0.04886541830000   -5.30624171970000   -0.75501980230000
