
Running Job 1 of 1 tidas/B052/conf-1/spe_input.inp
qchem tidas/B052/conf-1/spe_input.inp_134619.0 /home/a/aspuru/seifridm/acdc_laser/descriptor_computation/qchem134619/ 0
/gpfs/fs1/scinet/niagara/software/commercial/qc54/exe/qcprog.exe_s tidas/B052/conf-1/spe_input.inp_134619.0 /home/a/aspuru/seifridm/acdc_laser/descriptor_computation/qchem134619/
                  Welcome to Q-Chem
     A Quantum Leap Into The Future Of Chemistry


 Q-Chem 5.4, Q-Chem, Inc., Pleasanton, CA (2021)

 License issued to: SRG Alan Aspuru-Guzik, University of Toronto

 E. Epifanovsky,  A. T. B. Gilbert,  Xintian Feng,  Joonho Lee,  Yuezhi Mao,  
 N. Mardirossian,  P. Pokhilko,  A. White,  M. Wormit,  M. P. Coons,  
 A. L. Dempwolff,  Zhengting Gan,  D. Hait,  P. R. Horn,  L. D. Jacobson,  
 I. Kaliman,  J. Kussmann,  A. W. Lange,  Ka Un Lao,  D. S. Levine,  Jie Liu,  
 S. C. McKenzie,  A. F. Morrison,  K. Nanda,  F. Plasser,  D. R. Rehn,  
 M. L. Vidal,  Zhi-Qiang You,  Ying Zhu,  B. Alam,  B. Albrecht,  
 A. Aldossary,  E. Alguire,  J. H. Andersen,  D. Barton,  K. Begam,  A. Behn,  
 Y. A. Bernard,  E. J. Berquist,  H. Burton,  A. Carreras,  K. Carter-Fenk,  
 Romit Chakraborty,  A. D. Chien,  K. D. Closser,  V. Cofer-Shabica,  
 S. Dasgupta,  Jia Deng,  M. de Wergifosse,  M. Diedenhofen,  Hainam Do,  
 S. Ehlert,  Po-Tung Fang,  S. Fatehi,  Qingguo Feng,  T. Friedhoff,  
 J. Gayvert,  Qinghui Ge,  G. Gidofalvi,  M. Goldey,  J. Gomes,  
 C. Gonzalez-Espinoza,  S. Gulania,  A. Gunina,  M. W. D. Hanson-Heine,  
 P. H. P. Harbach,  A. W. Hauser,  M. F. Herbst,  M. Hernandez Vera,  
 M. Hodecker,  Z. C. Holden,  S. Houck,  Xunkun Huang,  Kerwin Hui,  
 B. C. Huynh,  M. Ivanov,  Hyunjun Ji,  Hanjie Jiang,  B. Kaduk,  S. Kaehler,  
 K. Khistyaev,  Jaehoon Kim,  P. Klunzinger,  Z. Koczor-Benda,  
 Joong Hoon Koh,  D. Kosenkov,  L. Koulias,  T. Kowalczyk,  C. M. Krauter,  
 K. Kue,  A. Kunitsa,  T. Kus,  A. Landau,  K. V. Lawler,  D. Lefrancois,  
 S. Lehtola,  Rain Li,  Yi-Pei Li,  Jiashu Liang,  M. Liebenthal,  
 Hung-Hsuan Lin,  You-Sheng Lin,  Fenglai Liu,  Kuan-Yu Liu,  
 M. Loipersberger,  A. Luenser,  A. Manjanath,  P. Manohar,  E. Mansoor,  
 S. F. Manzer,  Shan-Ping Mao,  A. V. Marenich,  T. Markovich,  S. Mason,  
 S. A. Maurer,  P. F. McLaughlin,  M. F. S. J. Menger,  J.-M. Mewes,  
 S. A. Mewes,  P. Morgante,  J. W. Mullinax,  K. J. Oosterbaan,  G. Paran,  
 Alexander C. Paul,  Suranjan K. Paul,  F. Pavosevic,  Zheng Pei,  S. Prager,  
 E. I. Proynov,  E. Ramos,  B. Rana,  A. E. Rask,  A. Rettig,  R. M. Richard,  
 F. Rob,  E. Rossomme,  T. Scheele,  M. Scheurer,  M. Schneider,  
 N. Sergueev,  S. M. Sharada,  W. Skomorowski,  D. W. Small,  C. J. Stein,  
 Yu-Chuan Su,  E. J. Sundstrom,  Zhen Tao,  J. Thirman,  T. Tsuchimochi,  
 N. M. Tubman,  S. P. Veccham,  O. Vydrov,  J. Wenzel,  J. Witte,  A. Yamada,  
 Kun Yao,  S. Yeganeh,  S. R. Yost,  A. Zech,  Igor Ying Zhang,  Xing Zhang,  
 Yu Zhang,  D. Zuev,  A. Aspuru-Guzik,  A. T. Bell,  N. A. Besley,  
 K. B. Bravaya,  B. R. Brooks,  D. Casanova,  Jeng-Da Chai,  S. Coriani,  
 C. J. Cramer,  A. E. DePrince, III,  R. A. DiStasio Jr.,  A. Dreuw,  
 B. D. Dunietz,  T. R. Furlani,  W. A. Goddard III,  S. Grimme,  
 S. Hammes-Schiffer,  T. Head-Gordon,  W. J. Hehre,  Chao-Ping Hsu,  
 T.-C. Jagau,  Yousung Jung,  A. Klamt,  Jing Kong,  D. S. Lambrecht,  
 WanZhen Liang,  N. J. Mayhall,  C. W. McCurdy,  J. B. Neaton,  T. Neudecker,  
 C. Ochsenfeld,  J. A. Parkhill,  R. Peverati,  V. A. Rassolov,  Yihan Shao,  
 L. V. Slipchenko,  R. P. Steele,  J. E. Subotnik,  A. J. W. Thom,  
 A. Tkatchenko,  D. G. Truhlar,  T. Van Voorhis,  T. A. Wesolowski,  
 K. B. Whaley,  H. L. Woodcock III,  P. M. Zimmerman,  S. Faraji,  
 P. M. W. Gill,  M. Head-Gordon,  J. M. Herbert,  A. I. Krylov

 Additional authors since Version 5.4.0: 
 Chandrima Chakravarty,  L. Cunha,  R. Kang,  Yongbin Kim,  S. Kotaru,  
 Shaozhi Li,  Xiangyuan Li,  F. Matz,  A. Molle,  V. Parravicini,  
 Haisheng Ren,  Hengyuan Shen,  Yingli Su,  Hung-Yi Tsai,  C. Utku,  
 Fang Wang,  Jeff Yang,  F. Zeller

 Contributors to earlier versions of Q-Chem not listed above: 
 R. D. Adamson,  B. Austin,  R. Baer,  J. Baker,  G. J. O. Beran,  
 K. Brandhorst,  S. T. Brown,  E. F. C. Byrd,  Arup K. Chakraborty,  
 G. K. L. Chan,  Chun-Min Chang,  Yunqing Chen,  C.-L. Cheng,  
 Siu Hung Chien,  D. M. Chipman,  D. L. Crittenden,  H. Dachsel,  
 R. J. Doerksen,  A. D. Dutoi,  R. G. Edgar,  J. Fosso-Tande,  
 L. Fusti-Molnar,  D. Ghosh,  A. Ghysels,  A. Golubeva-Zadorozhnaya,  
 J. Gonthier,  M. S. Gordon,  S. R. Gwaltney,  G. Hawkins,  J. E. Herr,  
 A. Heyden,  S. Hirata,  E. G. Hohenstein,  G. Kedziora,  F. J. Keil,  
 C. Kelley,  Jihan Kim,  R. A. King,  R. Z. Khaliullin,  P. P. Korambath,  
 W. Kurlancheek,  A. Laurent,  A. M. Lee,  M. S. Lee,  S. V. Levchenko,  
 Ching Yeh Lin,  D. Liotard,  E. Livshits,  R. C. Lochan,  I. Lotan,  
 L. A. Martinez-Martinez,  P. E. Maslen,  N. Nair,  D. P. O'Neill,  
 D. Neuhauser,  E. Neuscamman,  C. M. Oana,  R. Olivares-Amaya,  R. Olson,  
 T. M. Perrine,  B. Peters,  P. A. Pieniazek,  A. Prociuk,  Y. M. Rhee,  
 J. Ritchie,  M. A. Rohrdanz,  E. Rosta,  N. J. Russ,  H. F. Schaefer III,  
 M. W. Schmidt,  N. E. Schultz,  S. Sharma,  N. Shenvi,  C. D. Sherrill,  
 A. C. Simmonett,  A. Sodt,  T. Stein,  D. Stuck,  K. S. Thanthiriwatte,  
 V. Vanovschi,  L. Vogt,  Tao Wang,  A. Warshel,  M. A. Watson,  
 C. F. Williams,  Q. Wu,  X. Xu,  Jun Yang,  W. Zhang,  Yan Zhao

   Please cite Q-Chem as follows:
  "Software for the frontiers of quantum chemistry:
   An overview of developments in the Q-Chem 5 package"
   J. Chem. Phys. 155, 084801 (2021)
   https://doi.org/10.1063/5.0055522 (open access)

 Q-Chem 5.4.2 for Intel X86 EM64T Linux

 Parts of Q-Chem use Armadillo 9.900.5 (Nocturnal Misbehaviour).
 http://arma.sourceforge.net/

 Q-Chem begins on Fri Aug 12 13:11:43 2022  

 Host: 
0

     Scratch files written to /home/a/aspuru/seifridm/acdc_laser/descriptor_computation/qchem134619//
 Dec1321 |scratch|qcdevops|jenkins|workspace|build_RNUM 6959   
 Processing $rem in /gpfs/fs1/scinet/niagara/software/commercial/qc54/config/preferences:
 Processing $rem in /home/a/aspuru/seifridm/.qchemrc:

 Checking the input file for inconsistencies... 	...done.

--------------------------------------------------------------
User input:
--------------------------------------------------------------
$molecule
0 1
C            1.49897788390000       -3.61566809270000        0.62403361670000
C            0.70603919450000       -2.90690149470000       -0.16634098210000
C            0.56279524230000       -1.44779261450000       -0.12821898030000
C           -0.71102514690000       -0.93197854510000       -0.12559044690000
C           -0.96899371170000        0.44890969370000       -0.00091611570000
C           -2.30274177820000        1.02347533640000        0.02737245690000
C           -3.46644522640000        0.40328140300000       -0.09806407210000
F           -3.69014260910000       -0.89331675320000       -0.27975047240000
F           -4.63454858250000        1.03874458890000       -0.05772767340000
C            0.12296097540000        1.28653164820000        0.11246308020000
F           -0.07748836770000        2.61592306770000        0.26090454650000
C            1.45222229140000        0.82658743640000        0.06379077630000
C            2.54584668170000        1.71585772780000        0.13772416190000
C            3.82565720890000        1.24765320350000        0.04506154560000
C            4.05933640180000       -0.12115613710000       -0.14821023860000
C            3.01651128840000       -1.00533149850000       -0.20981033900000
C            1.68300066890000       -0.56901106190000       -0.07733093090000
H            1.52866982040000       -4.69081838500000        0.57321656810000
H            2.12640983750000       -3.15365128370000        1.36811128410000
H            0.04518232090000       -3.41383064660000       -0.85854516040000
H           -1.54286475780000       -1.61421870740000       -0.18927693680000
H           -2.36084675420000        2.09392382940000        0.16334579990000
H            2.34811773330000        2.77030166010000        0.25806724270000
H            4.66075138900000        1.92951913170000        0.10137085860000
H            5.07386891830000       -0.47530665050000       -0.25607222140000
H            3.20752455960000       -2.05255857870000       -0.38375361310000
$end

$rem
BASIS = 6-31G*
GUI = 2
METHOD = B3LYP
PRINT_ORBITALS false
MOLDEN_FORMAT false
$end
--------------------------------------------------------------
 ----------------------------------------------------------------
             Standard Nuclear Orientation (Angstroms)
    I     Atom           X                Y                Z
 ----------------------------------------------------------------
    1      C       1.8328220010     3.3670780896    -0.6252160354
    2      C       0.9457094512     2.7678675658     0.1556629143
    3      C       0.6286672906     1.3361914303     0.1281210788
    4      C      -0.6976923117     0.9771421367     0.1048131936
    5      C      -1.1175733688    -0.3641017579    -0.0122701540
    6      C      -2.5100042226    -0.7745701194    -0.0618873661
    7      C      -3.5927643726    -0.0176652780     0.0345806179
    8      F      -3.6621739058     1.2984253198     0.1998231688
    9      F      -4.8278858594    -0.5086241199    -0.0232144047
   10      C      -0.1324171388    -1.3280870919    -0.0961146393
   11      F      -0.4885656622    -2.6253946112    -0.2362851922
   12      C       1.2413863402    -1.0306282110    -0.0251531520
   13      C       2.2212468564    -2.0456298407    -0.0690526308
   14      C       3.5461385039    -1.7335228979     0.0448253788
   15      C       3.9391740156    -0.4005602356     0.2301159240
   16      C       3.0093523705     0.6031388443     0.2627460409
   17      C       1.6357419590     0.3286745751     0.1076954307
   18      H       1.9907172139     4.4313895488    -0.5837147808
   19      H       2.4139106066     2.8244790622    -1.3523365833
   20      H       0.3378196533     3.3584675159     0.8298418887
   21      H      -1.4424370596     1.7550601777     0.1455995670
   22      H      -2.6939419390    -1.8317834011    -0.1891347931
   23      H       1.9003577546    -3.0700020600    -0.1836080376
   24      H       4.2940206024    -2.5113752958     0.0114759223
   25      H       4.9867532817    -0.1696302616     0.3549440008
   26      H       3.3217044886     1.6217721601     0.4308210600
 ----------------------------------------------------------------
 Molecular Point Group                 C1    NOp =  1
 Largest Abelian Subgroup              C1    NOp =  1
 Nuclear Repulsion Energy =        1121.84789502 hartrees
 There are       60 alpha and       60 beta electrons
 Requested basis set is 6-31G(d)
 There are 86 shells and 273 basis functions

 Total QAlloc Memory Limit   8000 MB
 Mega-Array Size       188 MB
 MEM_STATIC part       192 MB
 A cutoff of  1.0D-08 yielded   2245 shell pairs
 There are     24368 function pairs
 Smallest overlap matrix eigenvalue = 2.28E-04

 Scale SEOQF with 1.000000e-01/1.000000e-01/1.000000e+00

 Standard Electronic Orientation quadrupole field applied
 Nucleus-field energy     =     0.0000000462 hartrees
 Guess from superposition of atomic densities
 Warning:  Energy on first SCF cycle will be non-variational
 SAD guess density has 120.000000 electrons

 -----------------------------------------------------------------------
  General SCF calculation program by
  Eric Jon Sundstrom, Paul Horn, Yuezhi Mao, Dmitri Zuev, Alec White,
  David Stuck, Shaama M.S., Shane Yost, Joonho Lee, David Small,
  Daniel Levine, Susi Lehtola, Hugh Burton, Evgeny Epifanovsky,
  Bang C. Huynh
 -----------------------------------------------------------------------
 Exchange:     0.2000 Hartree-Fock + 0.0800 Slater + 0.7200 B88
 Correlation:  0.1900 VWN1RPA + 0.8100 LYP
 Using SG-1 standard quadrature grid
 A restricted SCF calculation will be
 performed using DIIS
 SCF converges when DIIS error is below 1.0e-05
 ---------------------------------------
  Cycle       Energy         DIIS error
 ---------------------------------------
    1    -842.4154658542      4.85e-02  
    2    -838.1458762972      5.01e-03  
    3    -837.9907024856      6.46e-03  
    4    -838.3752643842      1.13e-03  
    5    -838.3864707846      3.62e-04  
    6    -838.3873780875      1.79e-04  
    7    -838.3876708882      5.13e-05  
    8    -838.3876954927      2.01e-05  
    9    -838.3877001617      4.35e-06  Convergence criterion met
 ---------------------------------------
 SCF time:   CPU 86.27s  wall 88.00s 
 SCF   energy in the final basis set =     -838.3877001617
 Total energy in the final basis set =     -838.3877001617
 
 --------------------------------------------------------------
 
                    Orbital Energies (a.u.)
 --------------------------------------------------------------
 
 Alpha MOs
 -- Occupied --
-24.7469 -24.7362 -24.7163 -10.3596 -10.2740 -10.2136 -10.2058 -10.2048
-10.2043 -10.2013 -10.1955 -10.1950 -10.1930 -10.1922 -10.1914 -10.1894
-10.1845  -1.2881  -1.2269  -1.2264  -0.8901  -0.8456  -0.8162  -0.7901
 -0.7558  -0.7460  -0.7232  -0.6558  -0.6362  -0.6249  -0.6120  -0.5789
 -0.5714  -0.5459  -0.5362  -0.5215  -0.5153  -0.4931  -0.4827  -0.4695
 -0.4677  -0.4495  -0.4432  -0.4416  -0.4367  -0.4299  -0.4224  -0.4093
 -0.3956  -0.3895  -0.3875  -0.3708  -0.3485  -0.3447  -0.3357  -0.3071
 -0.2778  -0.2671  -0.2351  -0.2050
 -- Virtual --
 -0.0486  -0.0283  -0.0001   0.0339   0.0621   0.1019   0.1084   0.1138
  0.1193   0.1321   0.1443   0.1489   0.1559   0.1779   0.1869   0.1926
  0.2036   0.2050   0.2197   0.2651   0.2705   0.2941   0.3092   0.3258
  0.3309   0.3449   0.3624   0.3750   0.4165   0.4210   0.4674   0.4788
  0.4875   0.4943   0.5092   0.5172   0.5197   0.5362   0.5454   0.5521
  0.5591   0.5628   0.5694   0.5742   0.5798   0.5929   0.6015   0.6106
  0.6134   0.6179   0.6218   0.6276   0.6332   0.6426   0.6723   0.6771
  0.7004   0.7033   0.7268   0.7389   0.7746   0.7832   0.8077   0.8260
  0.8334   0.8366   0.8466   0.8520   0.8609   0.8667   0.8786   0.9009
  0.9140   0.9224   0.9287   0.9411   0.9659   0.9832   0.9919   1.0308
  1.0441   1.0620   1.0751   1.1049   1.1282   1.1300   1.1533   1.1563
  1.1599   1.1741   1.1945   1.2106   1.2151   1.2209   1.2444   1.2558
  1.2609   1.2849   1.3151   1.3332   1.3460   1.3855   1.3912   1.4050
  1.4252   1.4380   1.4408   1.4576   1.4601   1.4803   1.4903   1.5002
  1.5026   1.5312   1.5499   1.5651   1.6018   1.6100   1.6405   1.6846
  1.7159   1.7521   1.7623   1.7754   1.7790   1.7832   1.8028   1.8061
  1.8107   1.8350   1.8364   1.8445   1.8533   1.8768   1.9074   1.9216
  1.9285   1.9404   1.9584   1.9721   1.9796   1.9928   2.0065   2.0168
  2.0216   2.0343   2.0526   2.0908   2.1281   2.1327   2.1434   2.1508
  2.1773   2.1928   2.2151   2.2300   2.2358   2.2463   2.2715   2.2950
  2.3078   2.3304   2.3443   2.3585   2.3645   2.3950   2.4375   2.4782
  2.4990   2.5028   2.5422   2.5507   2.6020   2.6223   2.6397   2.6544
  2.6842   2.6911   2.6995   2.7451   2.7716   2.7849   2.8151   2.8289
  2.8812   2.8984   2.9376   2.9848   3.0347   3.0715   3.0931   3.1725
  3.2078   3.2858   3.4498   3.5235   4.0673   4.0897   4.1031   4.1146
  4.1291   4.1478   4.1708   4.2478   4.2769   4.3285   4.3902   4.4989
  4.5754   4.7631   4.8454   5.2968   5.6946
 --------------------------------------------------------------
 
          Ground-State Mulliken Net Atomic Charges

     Atom                 Charge (a.u.)
  ----------------------------------------
      1 C                    -0.334072
      2 C                    -0.143080
      3 C                     0.107551
      4 C                    -0.277819
      5 C                     0.134838
      6 C                    -0.295661
      7 C                     0.547250
      8 F                    -0.234555
      9 F                    -0.245628
     10 C                     0.212123
     11 F                    -0.286514
     12 C                     0.062564
     13 C                    -0.182777
     14 C                    -0.133103
     15 C                    -0.132152
     16 C                    -0.203842
     17 C                     0.091148
     18 H                     0.145629
     19 H                     0.155343
     20 H                     0.141544
     21 H                     0.143166
     22 H                     0.174996
     23 H                     0.143764
     24 H                     0.133058
     25 H                     0.130957
     26 H                     0.145272
  ----------------------------------------
  Sum of atomic charges =     0.000000

 -----------------------------------------------------------------
                    Cartesian Multipole Moments
 -----------------------------------------------------------------
    Charge (ESU x 10^10)
                 0.0000
    Dipole Moment (Debye)
         X       1.4750      Y       0.6331      Z       0.0725
       Tot       1.6068
    Quadrupole Moments (Debye-Ang)
        XX     -90.1604     XY       0.0966     YY     -88.4065
        XZ      -0.5164     YZ       0.6371     ZZ     -96.1822
    Octopole Moments (Debye-Ang^2)
       XXX     -10.6988    XXY     -11.8517    XYY      -9.2241
       YYY      -1.2277    XXZ      -0.8189    XYZ      -2.2914
       YYZ       0.8254    XZZ     -30.4978    YZZ      -2.8330
       ZZZ      -1.3980
    Hexadecapole Moments (Debye-Ang^3)
      XXXX   -3636.0278   XXXY     -35.7822   XXYY    -837.0889
      XYYY      -3.9292   YYYY   -1531.3211   XXXZ       7.4550
      XXYZ      -4.1832   XYYZ     -13.2984   YYYZ      13.9766
      XXZZ    -651.5518   XYZZ       3.3655   YYZZ    -300.4755
      XZZZ      -9.6543   YZZZ       8.4024   ZZZZ    -128.0310
 -----------------------------------------------------------------
 Total job time:  92.00s(wall), 86.94s(cpu) 
 Fri Aug 12 13:13:15 2022

        *************************************************************
        *                                                           *
        *  Thank you very much for using Q-Chem.  Have a nice day.  *
        *                                                           *
        *************************************************************


