
Running Job 1 of 1 fragments/C155/conf-4/spe_input.inp
qchem fragments/C155/conf-4/spe_input.inp_319779.0 /gpfs/fs0/scratch/a/aspuru/rhickman/descriptor_computation/qchem319779/ 0
/scinet/niagara/software/commercial/qc52/exe/qcprog.exe_s fragments/C155/conf-4/spe_input.inp_319779.0 /gpfs/fs0/scratch/a/aspuru/rhickman/descriptor_computation/qchem319779/
                  Welcome to Q-Chem
     A Quantum Leap Into The Future Of Chemistry


 Q-Chem 5.2, Q-Chem, Inc., Pleasanton, CA (2019)

 License issued to: SRG Alan Aspuru-Guzik, University of Toronto

 Yihan Shao,  Zhengting Gan,  E. Epifanovsky,  A. T. B. Gilbert,  M. Wormit,  
 J. Kussmann,  A. W. Lange,  A. Behn,  Jia Deng,  Xintian Feng,  D. Ghosh,  
 M. Goldey,  P. R. Horn,  L. D. Jacobson,  I. Kaliman,  T. Kus,  A. Landau,  
 Jie Liu,  E. I. Proynov,  R. M. Richard,  R. P. Steele,  E. J. Sundstrom,  
 H. L. Woodcock III,  P. M. Zimmerman,  D. Zuev,  B. Albrecht,  E. Alguire,  
 S. A. Baeppler,  D. Barton,  Z. Benda,  Y. A. Bernard,  E. J. Berquist,  
 K. B. Bravaya,  H. Burton,  D. Casanova,  Chun-Min Chang,  Yunqing Chen,  
 A. Chien,  K. D. Closser,  M. P. Coons,  S. Coriani,  S. Dasgupta,  
 A. L. Dempwolff,  M. Diedenhofen,  Hainam Do,  R. G. Edgar,  Po-Tung Fang,  
 S. Faraji,  S. Fatehi,  Qingguo Feng,  K. D. Fenk,  J. Fosso-Tande,  
 J. Gayvert,  Qinghui Ge,  A. Ghysels,  G. Gidofalvi,  J. Gomes,  
 J. Gonthier,  A. Gunina,  D. Hait,  M. W. D. Hanson-Heine,  
 P. H. P. Harbach,  A. W. Hauser,  M. F. Herbst,  J. E. Herr,  
 E. G. Hohenstein,  Z. C. Holden,  Kerwin Hui,  B. C. Huynh,  T.-C. Jagau,  
 Hyunjun Ji,  B. Kaduk,  K. Khistyaev,  Jaehoon Kim,  P. Klunzinger,  K. Koh,  
 D. Kosenkov,  L. Koulias,  T. Kowalczyk,  C. M. Krauter,  A. Kunitsa,  
 Ka Un Lao,  A. Laurent,  K. V. Lawler,  Joonho Lee,  D. Lefrancois,  
 S. Lehtola,  D. S. Levine,  Yi-Pei Li,  You-Sheng Lin,  Fenglai Liu,  
 E. Livshits,  A. Luenser,  P. Manohar,  E. Mansoor,  S. F. Manzer,  
 Shan-Ping Mao,  Yuezhi Mao,  N. Mardirossian,  A. V. Marenich,  
 T. Markovich,  L. A. Martinez-Martinez,  S. A. Maurer,  N. J. Mayhall,  
 S. C. McKenzie,  J.-M. Mewes,  P. Morgante,  A. F. Morrison,  
 J. W. Mullinax,  K. Nanda,  T. S. Nguyen-Beck,  R. Olivares-Amaya,  
 J. A. Parkhill,  Zheng Pei,  T. M. Perrine,  F. Plasser,  P. Pokhilko,  
 S. Prager,  A. Prociuk,  E. Ramos,  D. R. Rehn,  F. Rob,  M. Scheurer,  
 M. Schneider,  N. Sergueev,  S. M. Sharada,  S. Sharma,  D. W. Small,  
 T. Stauch,  T. Stein,  Yu-Chuan Su,  A. J. W. Thom,  A. Tkatchenko,  
 T. Tsuchimochi,  N. M. Tubman,  L. Vogt,  M. L. Vidal,  O. Vydrov,  
 M. A. Watson,  J. Wenzel,  M. de Wergifosse,  T. A. Wesolowski,  A. White,  
 J. Witte,  A. Yamada,  Jun Yang,  K. Yao,  S. Yeganeh,  S. R. Yost,  
 Zhi-Qiang You,  A. Zech,  Igor Ying Zhang,  Xing Zhang,  Yan Zhao,  
 Ying Zhu,  B. R. Brooks,  G. K. L. Chan,  C. J. Cramer,  M. S. Gordon,  
 W. J. Hehre,  A. Klamt,  M. W. Schmidt,  C. D. Sherrill,  D. G. Truhlar,  
 A. Aspuru-Guzik,  R. Baer,  A. T. Bell,  N. A. Besley,  Jeng-Da Chai,  
 A. E. DePrince, III,  R. A. DiStasio Jr.,  A. Dreuw,  B. D. Dunietz,  
 T. R. Furlani,  Chao-Ping Hsu,  Yousung Jung,  Jing Kong,  D. S. Lambrecht,  
 WanZhen Liang,  C. Ochsenfeld,  V. A. Rassolov,  L. V. Slipchenko,  
 J. E. Subotnik,  T. Van Voorhis,  J. M. Herbert,  A. I. Krylov,  
 P. M. W. Gill,  M. Head-Gordon

 Contributors to earlier versions of Q-Chem not listed above: 
 R. D. Adamson,  B. Austin,  J. Baker,  G. J. O. Beran,  K. Brandhorst,  
 S. T. Brown,  E. F. C. Byrd,  A. K. Chakraborty,  C.-L. Cheng,  
 Siu Hung Chien,  D. M. Chipman,  D. L. Crittenden,  H. Dachsel,  
 R. J. Doerksen,  A. D. Dutoi,  L. Fusti-Molnar,  W. A. Goddard III,  
 A. Golubeva-Zadorozhnaya,  S. R. Gwaltney,  G. Hawkins,  A. Heyden,  
 S. Hirata,  G. Kedziora,  F. J. Keil,  C. Kelley,  Jihan Kim,  R. A. King,  
 R. Z. Khaliullin,  P. P. Korambath,  W. Kurlancheek,  A. M. Lee,  M. S. Lee,  
 S. V. Levchenko,  Ching Yeh Lin,  D. Liotard,  R. C. Lochan,  I. Lotan,  
 P. E. Maslen,  N. Nair,  D. P. O'Neill,  D. Neuhauser,  E. Neuscamman,  
 C. M. Oana,  R. Olson,  B. Peters,  R. Peverati,  P. A. Pieniazek,  
 Y. M. Rhee,  J. Ritchie,  M. A. Rohrdanz,  E. Rosta,  N. J. Russ,  
 H. F. Schaefer III,  N. E. Schultz,  N. Shenvi,  A. C. Simmonett,  A. Sodt,  
 D. Stuck,  K. S. Thanthiriwatte,  V. Vanovschi,  Tao Wang,  A. Warshel,  
 C. F. Williams,  Q. Wu,  X. Xu,  W. Zhang

 Please cite Q-Chem as follows:
 Y. Shao et al., Mol. Phys. 113, 184-215 (2015)
 DOI: 10.1080/00268976.2014.952696

 Q-Chem 5.2.1 for Intel X86 EM64T Linux

 Parts of Q-Chem use Armadillo 8.300.2 (Tropical Shenanigans).
 http://arma.sourceforge.net/

 Q-Chem begins on Tue Feb  8 14:22:54 2022  

Host: 
0

     Scratch files written to /gpfs/fs0/scratch/a/aspuru/rhickman/descriptor_computation/qchem319779//
 Jul1719 |scratch|qcdevops|jenkins|workspace|build_RNUM -1
Processing $rem in /scinet/niagara/software/commercial/qc52/config/preferences:
	 MEM_TOTAL  4000 
NAlpha2: 130
NElect   130
Mult     1

Checking the input file for inconsistencies... 	...done.

--------------------------------------------------------------
User input:
--------------------------------------------------------------
$molecule
0 1
C         2.42970190480000    2.83871367680000    0.53374030390000
C         1.42035010800000    2.50274128150000   -0.25722216540000
C         0.69616899790000    1.23659554610000   -0.18519952640000
C        -0.67992342040000    1.22918564910000   -0.38463043160000
C        -1.44503267600000    0.07938865880000   -0.22904829010000
C        -2.90936540720000    0.25250145010000   -0.41976087610000
O        -3.39713792150000    1.11383573600000   -1.11014438080000
O        -3.64275335970000   -0.61512008710000    0.29004930500000
C        -5.05072557250000   -0.46936348560000    0.18312789230000
C        -0.83146959110000   -1.13373053750000    0.12242197240000
C        -1.57044671650000   -2.38747867560000    0.25285688300000
C        -1.28212160280000   -3.32712268580000    1.14276563910000
C         0.55209173180000   -1.13054189780000    0.29055720150000
C         1.31170171480000    0.01768646180000    0.13201503630000
C         2.79166569870000   -0.12699098230000    0.24402945850000
O         3.36172567960000   -0.67267268280000    1.15411486130000
O         3.40852179900000    0.36149985290000   -0.83909094280000
C         4.82528802770000    0.27307127410000   -0.85239199750000
H         2.90934507430000    3.79974200830000    0.46004019290000
H         2.80323633460000    2.17518394590000    1.29688260270000
H         1.03404959330000    3.21386528790000   -0.97575600900000
H        -1.18937482710000    2.14484728090000   -0.64834668300000
H        -5.48376177220000   -1.22649332740000    0.83140920380000
H        -5.37119701250000   -0.61707264730000   -0.85040719840000
H        -5.35379937330000    0.52988061500000    0.50258038640000
H        -2.39764388230000   -2.52632499920000   -0.42870373390000
H        -0.49178099250000   -3.20685307440000    1.86476311690000
H        -1.84520516740000   -4.24270497950000    1.19814773960000
H         1.05825211450000   -2.05577185800000    0.52191371080000
H         5.13447387680000    0.45692821630000   -1.87808973380000
H         5.14749009770000   -0.71641287440000   -0.52151312150000
H         5.25308328840000    1.02617936420000   -0.18689368460000
$end

$rem
BASIS = 6-31G*
GUI = 2
METHOD = B3LYP
PRINT_ORBITALS false
MOLDEN_FORMAT false
--------------------------------------------------------------
 ----------------------------------------------------------------
             Standard Nuclear Orientation (Angstroms)
    I     Atom           X                Y                Z
 ----------------------------------------------------------------
    1      C       2.9083041323     2.1287831013     1.1209555964
    2      C       1.8651981278     2.1882229084     0.3050592178
    3      C       0.9150971300     1.0996068844     0.0929889218
    4      C      -0.4348981220     1.3964403757    -0.0582084132
    5      C      -1.4045291200     0.4059304437    -0.1598789454
    6      C      -2.8073954579     0.8889208757    -0.2562944897
    7      O      -3.1147692280     1.9671607992    -0.7028011460
    8      O      -3.7007716204     0.0267077167     0.2466200303
    9      C      -5.0546216068     0.4528524290     0.2230865230
   10      C      -1.0348684850    -0.9483816838    -0.1309157733
   11      C      -1.9980049955    -2.0366207946    -0.2828649474
   12      C      -1.9040654184    -3.2008135989     0.3446940549
   13      C       0.3221154727    -1.2430267585    -0.0113315957
   14      C       1.2860932318    -0.2522711046     0.0872656885
   15      C       2.7107757994    -0.6919905908     0.1136956386
   16      O       3.1551275995    -1.5382666064     0.8467445617
   17      O       3.4238095635    -0.0785495790    -0.8389624976
   18      C       4.7987813570    -0.4225662897    -0.9185121567
   19      H       3.5609503334     2.9726829602     1.2656991451
   20      H       3.1396074105     1.2424417037     1.6893599970
   21      H       1.6296620148     3.1114275415    -0.2081973158
   22      H      -0.7594447892     2.4268952579    -0.0770609320
   23      H      -5.6313895976    -0.3449869778     0.6833316449
   24      H      -5.3823549867     0.6225156258    -0.8047850426
   25      H      -5.1691060233     1.3830578425     0.7834467682
   26      H      -2.8267469958    -1.8498506215    -0.9509681779
   27      H      -1.1155868099    -3.4082418848     1.0487241735
   28      H      -2.6298587580    -3.9815035727     0.1958034667
   29      H       0.6420942793    -2.2741286119    -0.0260685505
   30      H       5.1516061134    -0.0560013723    -1.8790328297
   31      H       4.9246051636    -1.5048457843    -0.8463086261
   32      H       5.3508998563     0.0536020664    -0.1051872251
 ----------------------------------------------------------------
 Molecular Point Group                 C1    NOp =  1
 Largest Abelian Subgroup              C1    NOp =  1
 Nuclear Repulsion Energy =        1278.50531206 hartrees
 There are       65 alpha and       65 beta electrons
 Requested basis set is 6-31G(d)
 There are 100 shells and 298 basis functions

 Total QAlloc Memory Limit   4000 MB
 Mega-Array Size       188 MB
 MEM_STATIC part       192 MB
 A cutoff of  1.0D-08 yielded   2767 shell pairs
 There are     27410 function pairs
 Smallest overlap matrix eigenvalue = 2.90E-04

 Scale SEOQF with 1.000000e-02/1.000000e-01/1.000000e-01

 Standard Electronic Orientation quadrupole field applied
 Nucleus-field energy     =     0.0000000209 hartrees
 Guess from superposition of atomic densities
 Warning:  Energy on first SCF cycle will be non-variational
 SAD guess density has 130.000000 electrons

 -----------------------------------------------------------------------
  General SCF calculation program by
  Eric Jon Sundstrom, Paul Horn, Yuezhi Mao, Dmitri Zuev, Alec White,
  David Stuck, Shaama M.S., Shane Yost, Joonho Lee, David Small,
  Daniel Levine, Susi Lehtola, Hugh Burton, Evgeny Epifanovsky,
  Bang C. Huynh
 -----------------------------------------------------------------------
 Exchange:     0.2000 Hartree-Fock + 0.0800 Slater + 0.7200 B88
 Correlation:  0.1900 VWN1RPA + 0.8100 LYP
 Using SG-1 standard quadrature grid
 A restricted SCF calculation will be
 performed using DIIS
 SCF converges when DIIS error is below 1.0e-05
 ---------------------------------------
  Cycle       Energy         DIIS error
 ---------------------------------------
    1    -846.8047022861      4.73e-02  
    2    -842.4679429935      5.69e-03  
    3    -842.0406357736      9.28e-03  
    4    -842.7356300495      2.20e-03  
    5    -842.7801497180      5.58e-04  
    6    -842.7823470440      2.23e-04  
    7    -842.7827843380      4.41e-05  
    8    -842.7827992127      2.06e-05  
    9    -842.7828031916      7.64e-06  Convergence criterion met
 ---------------------------------------
 SCF time:   CPU 64.74s  wall 65.00s 
 SCF   energy in the final basis set =     -842.7828031916
 Total energy in the final basis set =     -842.7828031916
 
 --------------------------------------------------------------
 
                    Orbital Energies (a.u.)
 --------------------------------------------------------------
 
 Alpha MOs
 -- Occupied --
-19.1977 -19.1923 -19.1375 -19.1363 -10.3174 -10.3170 -10.2428 -10.2394
-10.2127 -10.2122 -10.2111 -10.2106 -10.2012 -10.2007 -10.1966 -10.1942
-10.1864 -10.1835  -1.1144  -1.1109  -1.0208  -1.0207  -0.8861  -0.8237
 -0.7893  -0.7762  -0.7465  -0.7324  -0.7177  -0.6567  -0.6365  -0.5967
 -0.5874  -0.5685  -0.5592  -0.5276  -0.5220  -0.4970  -0.4886  -0.4832
 -0.4742  -0.4726  -0.4643  -0.4517  -0.4438  -0.4340  -0.4316  -0.4210
 -0.4067  -0.4003  -0.3987  -0.3820  -0.3738  -0.3653  -0.3589  -0.3541
 -0.3454  -0.3136  -0.3057  -0.3005  -0.2863  -0.2777  -0.2701  -0.2583
 -0.2273
 -- Virtual --
 -0.0608  -0.0338   0.0046   0.0221   0.0401   0.0779   0.1025   0.1092
  0.1124   0.1273   0.1299   0.1349   0.1469   0.1476   0.1533   0.1571
  0.1633   0.1692   0.1712   0.1817   0.1878   0.1956   0.2009   0.2553
  0.2621   0.2817   0.2892   0.3032   0.3189   0.3277   0.3377   0.3531
  0.3713   0.3814   0.3867   0.4219   0.4572   0.4720   0.4882   0.4976
  0.5048   0.5142   0.5180   0.5237   0.5329   0.5351   0.5489   0.5543
  0.5588   0.5785   0.5801   0.5856   0.5882   0.5934   0.6039   0.6094
  0.6116   0.6347   0.6477   0.6613   0.6719   0.6762   0.6867   0.6921
  0.6981   0.7129   0.7198   0.7307   0.7493   0.7613   0.7885   0.8071
  0.8171   0.8264   0.8381   0.8395   0.8441   0.8558   0.8573   0.8611
  0.8673   0.8724   0.8801   0.8856   0.8922   0.9113   0.9214   0.9324
  0.9388   0.9560   0.9632   0.9670   0.9826   0.9899   1.0070   1.0152
  1.0317   1.0426   1.0582   1.0705   1.0758   1.0805   1.0911   1.1188
  1.1225   1.1457   1.1754   1.1987   1.2086   1.2250   1.2296   1.2363
  1.2383   1.2821   1.2980   1.3276   1.3356   1.3618   1.3903   1.4210
  1.4351   1.4469   1.4627   1.4749   1.4759   1.4843   1.5081   1.5306
  1.5473   1.5593   1.5972   1.6292   1.6519   1.6573   1.6661   1.6769
  1.6908   1.7052   1.7132   1.7359   1.7567   1.7799   1.7826   1.7947
  1.8304   1.8477   1.8548   1.8682   1.8887   1.9066   1.9249   1.9404
  1.9596   1.9659   1.9953   2.0062   2.0135   2.0236   2.0288   2.0392
  2.0501   2.0582   2.0705   2.0979   2.1087   2.1201   2.1238   2.1319
  2.1449   2.1620   2.1829   2.2211   2.2506   2.2567   2.2712   2.2848
  2.2915   2.2965   2.3087   2.3268   2.3357   2.3609   2.3885   2.4024
  2.4236   2.4446   2.4588   2.4919   2.5236   2.5585   2.5647   2.5777
  2.6248   2.6351   2.6741   2.6839   2.7034   2.7141   2.7384   2.7470
  2.7934   2.8277   2.8462   2.8668   2.9090   2.9566   2.9639   2.9908
  3.0278   3.0451   3.1304   3.1594   3.1730   3.3040   3.4793   3.9827
  4.0073   4.0913   4.1071   4.1186   4.1327   4.1654   4.2197   4.2345
  4.2394   4.2690   4.3011   4.3220   4.4255   4.4340   4.4910   4.5750
  4.8201
 --------------------------------------------------------------
 
          Ground-State Mulliken Net Atomic Charges

     Atom                 Charge (a.u.)
  ----------------------------------------
      1 C                    -0.348504
      2 C                    -0.114336
      3 C                     0.143787
      4 C                    -0.246786
      5 C                     0.045135
      6 C                     0.547286
      7 O                    -0.481614
      8 O                    -0.443299
      9 C                    -0.220463
     10 C                     0.116942
     11 C                    -0.097220
     12 C                    -0.342323
     13 C                    -0.237462
     14 C                     0.071299
     15 C                     0.499587
     16 O                    -0.478591
     17 O                    -0.419502
     18 C                    -0.222419
     19 H                     0.148311
     20 H                     0.163184
     21 H                     0.142749
     22 H                     0.162926
     23 H                     0.167642
     24 H                     0.169485
     25 H                     0.172565
     26 H                     0.142729
     27 H                     0.152280
     28 H                     0.145340
     29 H                     0.156526
     30 H                     0.166914
     31 H                     0.175679
     32 H                     0.162153
  ----------------------------------------
  Sum of atomic charges =     0.000000

 -----------------------------------------------------------------
                    Cartesian Multipole Moments
 -----------------------------------------------------------------
    Charge (ESU x 10^10)
                 0.0000
    Dipole Moment (Debye)
         X      -0.2377      Y      -0.2154      Z      -0.5124
       Tot       0.6045
    Quadrupole Moments (Debye-Ang)
        XX     -82.7163     XY      10.6748     YY    -103.5866
        XZ      -6.4046     YZ       5.2059     ZZ    -105.6882
    Octopole Moments (Debye-Ang^2)
       XXX     -19.3379    XXY       0.3212    XYY       7.4119
       YYY      -5.6493    XXZ     -14.1777    XYZ       2.7323
       YYZ       2.9892    XZZ       0.5244    YZZ       0.6296
       ZZZ      -5.4670
    Hexadecapole Moments (Debye-Ang^3)
      XXXX   -4203.4228   XXXY      31.6774   XXYY   -1142.2295
      XYYY      62.2402   YYYY   -1483.3232   XXXZ    -142.8049
      XXYZ      84.6463   XYYZ     -34.1973   YYYZ      -9.2940
      XXZZ    -880.9704   XYZZ      -6.2222   YYZZ    -322.1753
      XZZZ     -11.1003   YZZZ     -10.0190   ZZZZ    -294.8968
 -----------------------------------------------------------------
Archival summary:
1\1\nia2015.scinet.local\SP\ProcedureUnspecified\6-31G*\41414\rhickman\TueFeb814:23:592022TueFeb814:23:592022\0\\#,ProcedureUnspecified,6-31G*,\\0,1\O\C,1,1.33876\O,2,1.20457,1,123.952\C,1,1.41959,2,116.404,3,-3.20492,0\H,4,1.08695,1,106.391,2,165.195,0\H,4,1.09196,1,110.37,2,44.9132,0\H,4,1.09228,1,110.012,2,-75.3342,0\C,2,1.49123,1,111.169,3,-176.452,0\C,8,1.38585,2,117.065,1,125.577,0\H,9,1.07971,8,118.526,2,2.27397,0\C,9,1.39374,8,122.155,2,-175.801,0\C,8,1.40187,2,122.487,1,-51.2845,0\C,12,1.39049,8,117.539,2,174.186,0\H,13,1.08052,12,119.808,8,-178.897,0\C,13,1.38983,12,122.219,8,2.50144,0\C,12,1.46039,8,123.18,2,-8.48336,0\H,16,1.08223,12,115.178,8,148.449,0\C,16,1.32563,12,124.602,8,-35.6582,0\H,18,1.0766,16,121.642,12,-177.955,0\H,18,1.07805,16,122.02,12,0.858384,0\C,11,1.46116,9,119.554,8,177.651,0\H,21,1.08077,11,116.169,9,-142.408,0\C,21,1.3259,11,123.919,9,37.7895,0\H,23,1.0763,21,121.576,11,-179.268,0\H,23,1.07721,21,122.024,11,2.38153,0\C,15,1.48681,13,115.563,12,177.379,0\O,26,1.20683,15,123.679,13,26.5945,0\O,26,1.33957,15,113.317,13,-151.167,0\C,28,1.41953,26,115.888,15,177.978,0\H,29,1.08675,28,106.186,26,-178.698,0\H,29,1.09197,28,110.317,26,-58.7788,0\H,29,1.09211,28,110.392,26,61.2706,0\\\@

 Total job time:  65.19s(wall), 65.00s(cpu) 
 Tue Feb  8 14:23:59 2022

        *************************************************************
        *                                                           *
        *  Thank you very much for using Q-Chem.  Have a nice day.  *
        *                                                           *
        *************************************************************


