24
 energy: -37.203950524207 gnorm: 0.000030142731 xtb: 6.4.1 (23d549d)
C         0.97176311310000    1.25120799140000    2.33995832080000
C         1.60304783170000    0.13266553820000    2.00900744920000
C         1.66651189980000   -0.45784415480000    0.68149867900000
C         2.79948437980000   -1.21597755730000    0.27536567230000
C         2.75474414920000   -1.60654937760000   -1.01967390100000
S         1.31606036000000   -1.08758871690000   -1.80154192920000
C         0.75133022220000   -0.31919550800000   -0.34192641960000
C        -0.55195685180000    0.28850195870000   -0.34292764720000
S        -1.02223523580000    1.32436259260000   -1.65904298430000
C        -2.56648857970000    1.58312119780000   -0.94758370500000
C        -2.71238360980000    0.91618954520000    0.22089677820000
C        -1.56713171670000    0.15674862420000    0.58440964340000
C        -1.47352296720000   -0.70157344320000    1.74766712210000
C        -2.28336154950000   -0.65347986160000    2.79907691080000
H         1.00414985660000    1.63527171010000    3.34467127430000
H         0.41110286430000    1.82722888860000    1.62457938450000
H         2.18739337090000   -0.39177394410000    2.75554875290000
H         3.62147394030000   -1.43316263790000    0.93470571380000
H         3.47908123860000   -2.17128308910000   -1.57226991270000
H        -3.27275443410000    2.21633985980000   -1.44685606770000
H        -3.61507937010000    0.93846322070000    0.80347105430000
H        -0.66959114410000   -1.42533861660000    1.72114685790000
H        -3.07981550730000    0.06613489820000    2.88136109810000
H        -2.16714320820000   -1.33119456270000    3.62678603820000
