
Running Job 1 of 1 fragments/C088/conf-9/spe_input.inp
qchem fragments/C088/conf-9/spe_input.inp_255816.0 /gpfs/fs0/scratch/a/aspuru/rhickman/descriptor_computation/qchem255816/ 0
/scinet/niagara/software/commercial/qc52/exe/qcprog.exe_s fragments/C088/conf-9/spe_input.inp_255816.0 /gpfs/fs0/scratch/a/aspuru/rhickman/descriptor_computation/qchem255816/
                  Welcome to Q-Chem
     A Quantum Leap Into The Future Of Chemistry


 Q-Chem 5.2, Q-Chem, Inc., Pleasanton, CA (2019)

 License issued to: SRG Alan Aspuru-Guzik, University of Toronto

 Yihan Shao,  Zhengting Gan,  E. Epifanovsky,  A. T. B. Gilbert,  M. Wormit,  
 J. Kussmann,  A. W. Lange,  A. Behn,  Jia Deng,  Xintian Feng,  D. Ghosh,  
 M. Goldey,  P. R. Horn,  L. D. Jacobson,  I. Kaliman,  T. Kus,  A. Landau,  
 Jie Liu,  E. I. Proynov,  R. M. Richard,  R. P. Steele,  E. J. Sundstrom,  
 H. L. Woodcock III,  P. M. Zimmerman,  D. Zuev,  B. Albrecht,  E. Alguire,  
 S. A. Baeppler,  D. Barton,  Z. Benda,  Y. A. Bernard,  E. J. Berquist,  
 K. B. Bravaya,  H. Burton,  D. Casanova,  Chun-Min Chang,  Yunqing Chen,  
 A. Chien,  K. D. Closser,  M. P. Coons,  S. Coriani,  S. Dasgupta,  
 A. L. Dempwolff,  M. Diedenhofen,  Hainam Do,  R. G. Edgar,  Po-Tung Fang,  
 S. Faraji,  S. Fatehi,  Qingguo Feng,  K. D. Fenk,  J. Fosso-Tande,  
 J. Gayvert,  Qinghui Ge,  A. Ghysels,  G. Gidofalvi,  J. Gomes,  
 J. Gonthier,  A. Gunina,  D. Hait,  M. W. D. Hanson-Heine,  
 P. H. P. Harbach,  A. W. Hauser,  M. F. Herbst,  J. E. Herr,  
 E. G. Hohenstein,  Z. C. Holden,  Kerwin Hui,  B. C. Huynh,  T.-C. Jagau,  
 Hyunjun Ji,  B. Kaduk,  K. Khistyaev,  Jaehoon Kim,  P. Klunzinger,  K. Koh,  
 D. Kosenkov,  L. Koulias,  T. Kowalczyk,  C. M. Krauter,  A. Kunitsa,  
 Ka Un Lao,  A. Laurent,  K. V. Lawler,  Joonho Lee,  D. Lefrancois,  
 S. Lehtola,  D. S. Levine,  Yi-Pei Li,  You-Sheng Lin,  Fenglai Liu,  
 E. Livshits,  A. Luenser,  P. Manohar,  E. Mansoor,  S. F. Manzer,  
 Shan-Ping Mao,  Yuezhi Mao,  N. Mardirossian,  A. V. Marenich,  
 T. Markovich,  L. A. Martinez-Martinez,  S. A. Maurer,  N. J. Mayhall,  
 S. C. McKenzie,  J.-M. Mewes,  P. Morgante,  A. F. Morrison,  
 J. W. Mullinax,  K. Nanda,  T. S. Nguyen-Beck,  R. Olivares-Amaya,  
 J. A. Parkhill,  Zheng Pei,  T. M. Perrine,  F. Plasser,  P. Pokhilko,  
 S. Prager,  A. Prociuk,  E. Ramos,  D. R. Rehn,  F. Rob,  M. Scheurer,  
 M. Schneider,  N. Sergueev,  S. M. Sharada,  S. Sharma,  D. W. Small,  
 T. Stauch,  T. Stein,  Yu-Chuan Su,  A. J. W. Thom,  A. Tkatchenko,  
 T. Tsuchimochi,  N. M. Tubman,  L. Vogt,  M. L. Vidal,  O. Vydrov,  
 M. A. Watson,  J. Wenzel,  M. de Wergifosse,  T. A. Wesolowski,  A. White,  
 J. Witte,  A. Yamada,  Jun Yang,  K. Yao,  S. Yeganeh,  S. R. Yost,  
 Zhi-Qiang You,  A. Zech,  Igor Ying Zhang,  Xing Zhang,  Yan Zhao,  
 Ying Zhu,  B. R. Brooks,  G. K. L. Chan,  C. J. Cramer,  M. S. Gordon,  
 W. J. Hehre,  A. Klamt,  M. W. Schmidt,  C. D. Sherrill,  D. G. Truhlar,  
 A. Aspuru-Guzik,  R. Baer,  A. T. Bell,  N. A. Besley,  Jeng-Da Chai,  
 A. E. DePrince, III,  R. A. DiStasio Jr.,  A. Dreuw,  B. D. Dunietz,  
 T. R. Furlani,  Chao-Ping Hsu,  Yousung Jung,  Jing Kong,  D. S. Lambrecht,  
 WanZhen Liang,  C. Ochsenfeld,  V. A. Rassolov,  L. V. Slipchenko,  
 J. E. Subotnik,  T. Van Voorhis,  J. M. Herbert,  A. I. Krylov,  
 P. M. W. Gill,  M. Head-Gordon

 Contributors to earlier versions of Q-Chem not listed above: 
 R. D. Adamson,  B. Austin,  J. Baker,  G. J. O. Beran,  K. Brandhorst,  
 S. T. Brown,  E. F. C. Byrd,  A. K. Chakraborty,  C.-L. Cheng,  
 Siu Hung Chien,  D. M. Chipman,  D. L. Crittenden,  H. Dachsel,  
 R. J. Doerksen,  A. D. Dutoi,  L. Fusti-Molnar,  W. A. Goddard III,  
 A. Golubeva-Zadorozhnaya,  S. R. Gwaltney,  G. Hawkins,  A. Heyden,  
 S. Hirata,  G. Kedziora,  F. J. Keil,  C. Kelley,  Jihan Kim,  R. A. King,  
 R. Z. Khaliullin,  P. P. Korambath,  W. Kurlancheek,  A. M. Lee,  M. S. Lee,  
 S. V. Levchenko,  Ching Yeh Lin,  D. Liotard,  R. C. Lochan,  I. Lotan,  
 P. E. Maslen,  N. Nair,  D. P. O'Neill,  D. Neuhauser,  E. Neuscamman,  
 C. M. Oana,  R. Olson,  B. Peters,  R. Peverati,  P. A. Pieniazek,  
 Y. M. Rhee,  J. Ritchie,  M. A. Rohrdanz,  E. Rosta,  N. J. Russ,  
 H. F. Schaefer III,  N. E. Schultz,  N. Shenvi,  A. C. Simmonett,  A. Sodt,  
 D. Stuck,  K. S. Thanthiriwatte,  V. Vanovschi,  Tao Wang,  A. Warshel,  
 C. F. Williams,  Q. Wu,  X. Xu,  W. Zhang

 Please cite Q-Chem as follows:
 Y. Shao et al., Mol. Phys. 113, 184-215 (2015)
 DOI: 10.1080/00268976.2014.952696

 Q-Chem 5.2.1 for Intel X86 EM64T Linux

 Parts of Q-Chem use Armadillo 8.300.2 (Tropical Shenanigans).
 http://arma.sourceforge.net/

 Q-Chem begins on Mon Feb  7 08:44:02 2022  

Host: 
0

     Scratch files written to /gpfs/fs0/scratch/a/aspuru/rhickman/descriptor_computation/qchem255816//
 Jul1719 |scratch|qcdevops|jenkins|workspace|build_RNUM -1
Processing $rem in /scinet/niagara/software/commercial/qc52/config/preferences:
	 MEM_TOTAL  4000 
NAlpha2: 136
NElect   136
Mult     1

Checking the input file for inconsistencies... 	...done.

--------------------------------------------------------------
User input:
--------------------------------------------------------------
$molecule
0 1
C        -4.17180698810000    1.12970805330000    2.65938364520000
C        -4.36366835780000    0.39457658060000    1.56625735220000
C        -3.34621483550000    0.03052911910000    0.61792698610000
C        -2.00621306940000    0.32851555580000    0.60433313100000
C        -1.31049444650000   -0.20118163680000   -0.49593848070000
C         0.15957641660000   -0.02946448080000   -0.75225530250000
C         0.84614065360000    0.95345896950000    0.19356884690000
C         2.30668802160000    1.21274040510000   -0.18145072860000
C         3.21712894060000    0.01382623990000    0.07585144320000
C         4.66546741190000    0.25322154400000   -0.35465174060000
C         5.38617323190000    1.38803326680000    0.37710896080000
C         5.45202918080000    1.23819333580000    1.89769789120000
C         6.20895829990000   -0.00610967510000    2.34676046200000
C        -2.13414606850000   -0.92373237980000   -1.33885916990000
C        -1.76858351000000   -1.61017213050000   -2.54632439970000
C        -2.60838868540000   -2.29478783160000   -3.31941885580000
S        -3.77325000900000   -0.93375881270000   -0.76044853340000
H        -4.98366387560000    1.36285334130000    3.32521712690000
H        -3.20542212810000    1.52130355790000    2.92541743960000
H        -5.35368456180000    0.02155727000000    1.33725087070000
H        -1.54304817990000    0.91584228530000    1.37473126930000
H         0.29893520280000    0.31958419660000   -1.78002515930000
H         0.63929675420000   -1.00940608640000   -0.67303024280000
H         0.80389781330000    0.57125594810000    1.21584829900000
H         0.30708085430000    1.90345643940000    0.16280391820000
H         2.66195199560000    2.06168611820000    0.40537825560000
H         2.36545441080000    1.49232708060000   -1.23646697550000
H         2.84535340890000   -0.84898062310000   -0.48105358160000
H         3.18281623630000   -0.24422806850000    1.13577100540000
H         4.67821948170000    0.47970481570000   -1.42426505610000
H         5.22602105480000   -0.67319287500000   -0.21489753270000
H         4.89950932710000    2.33629263700000    0.14002073480000
H         6.40653957320000    1.44367102380000   -0.01146761620000
H         4.44290826050000    1.22000681070000    2.31260168500000
H         5.95275668910000    2.12109743990000    2.30338661280000
H         5.68420714620000   -0.91119898440000    2.05216524950000
H         6.31393812360000   -0.01374579920000    3.42955524590000
H         7.20369369290000   -0.02566042290000    1.90629823280000
H        -0.72199650850000   -1.54541683780000   -2.81332116120000
H        -3.65480225740000   -2.37864210780000   -3.07652181160000
H        -2.27635220430000   -2.79067275650000   -4.21414708120000
$end

$rem
BASIS = 6-31G*
GUI = 2
METHOD = B3LYP
PRINT_ORBITALS false
MOLDEN_FORMAT false
--------------------------------------------------------------
 ----------------------------------------------------------------
             Standard Nuclear Orientation (Angstroms)
    I     Atom           X                Y                Z
 ----------------------------------------------------------------
    1      C      -3.6696786049    -3.6580280660    -0.0006636730
    2      C      -4.1300365494    -2.4156171203    -0.1296588850
    3      C      -3.3323808789    -1.2210227573    -0.0683200996
    4      C      -1.9812914162    -1.0717510924     0.1236712451
    5      C      -1.5452785021     0.2643156399     0.1280942461
    6      C      -0.1222497185     0.7078070176     0.3140993980
    7      C       0.8351127250    -0.4169851343     0.7019035354
    8      C       2.2433814824     0.0889609563     1.0210630873
    9      C       2.9996221349     0.5837600916    -0.2101055207
   10      C       4.3846254912     1.1444871198     0.1180382481
   11      C       5.3646728067     0.1453696409     0.7376831239
   12      C       5.6391988504    -1.0999547958    -0.1065811742
   13      C       6.2680244201    -0.7830356743    -1.4582577406
   14      C      -2.5833893250     1.1554761960    -0.0697835987
   15      C      -2.5091457686     2.5883311660    -0.1347630257
   16      C      -3.5469289581     3.3984242482    -0.3307264881
   17      S      -4.0992398897     0.3248955699    -0.2532338928
   18      H      -4.3282825177    -4.5064175497    -0.0579238378
   19      H      -2.6277383570    -3.8697227989     0.1653681809
   20      H      -5.1867550743    -2.2492640101    -0.2951643552
   21      H      -1.3262124882    -1.9120770739     0.2567559418
   22      H      -0.0922516858     1.4760068306     1.0929035418
   23      H       0.2173481288     1.1731264539    -0.6158709709
   24      H       0.8944414255    -1.1459926828    -0.1092357774
   25      H       0.4405606915    -0.9231552385     1.5862946589
   26      H       2.8027623931    -0.7299391047     1.4768977707
   27      H       2.1804001704     0.8956598858     1.7558771252
   28      H       2.4266573037     1.3794312593    -0.6911612664
   29      H       3.0903687252    -0.2318916058    -0.9296027278
   30      H       4.2667624058     1.9783337807     0.8154176079
   31      H       4.8202103238     1.5494579634    -0.7975270256
   32      H       4.9896489805    -0.1695931084     1.7135950116
   33      H       6.3110997440     0.6652129527     0.9087789162
   34      H       4.7131875881    -1.6572003718    -0.2575164246
   35      H       6.3180941785    -1.7467533189     0.4551873166
   36      H       5.5793707675    -0.2280223863    -2.0899642921
   37      H       6.5346060522    -1.7023259354    -1.9753295606
   38      H       7.1706257735    -0.1895640937    -1.3279120880
   39      H      -1.5172343136     3.0034128965    -0.0137518992
   40      H      -4.5451021591     3.0129134751    -0.4573897505
   41      H      -3.4302789551     4.4668100472    -0.3711398807
 ----------------------------------------------------------------
 Molecular Point Group                 C1    NOp =  1
 Largest Abelian Subgroup              C1    NOp =  1
 Nuclear Repulsion Energy =        1240.14577596 hartrees
 There are       68 alpha and       68 beta electrons
 Requested basis set is 6-31G(d)
 There are 117 shells and 307 basis functions

 Total QAlloc Memory Limit   4000 MB
 Mega-Array Size       188 MB
 MEM_STATIC part       192 MB
 A cutoff of  1.0D-08 yielded   3437 shell pairs
 There are     24866 function pairs
 Smallest overlap matrix eigenvalue = 6.57E-04

 Scale SEOQF with 1.000000e-02/1.000000e-01/1.000000e-01

 Standard Electronic Orientation quadrupole field applied
 Nucleus-field energy     =     0.0000000283 hartrees
 Guess from superposition of atomic densities
 Warning:  Energy on first SCF cycle will be non-variational
 SAD guess density has 136.000000 electrons

 -----------------------------------------------------------------------
  General SCF calculation program by
  Eric Jon Sundstrom, Paul Horn, Yuezhi Mao, Dmitri Zuev, Alec White,
  David Stuck, Shaama M.S., Shane Yost, Joonho Lee, David Small,
  Daniel Levine, Susi Lehtola, Hugh Burton, Evgeny Epifanovsky,
  Bang C. Huynh
 -----------------------------------------------------------------------
 Exchange:     0.2000 Hartree-Fock + 0.0800 Slater + 0.7200 B88
 Correlation:  0.1900 VWN1RPA + 0.8100 LYP
 Using SG-1 standard quadrature grid
 A restricted SCF calculation will be
 performed using DIIS
 SCF converges when DIIS error is below 1.0e-05
 ---------------------------------------
  Cycle       Energy         DIIS error
 ---------------------------------------
    1   -1025.8345531869      4.51e-02  
    2   -1021.9491324843      5.23e-03  
    3   -1021.8314966126      6.03e-03  
    4   -1022.2930246259      1.01e-03  
    5   -1022.3048087320      4.60e-04  
    6   -1022.3074062038      1.17e-04  
    7   -1022.3075612302      4.41e-05  
    8   -1022.3075843112      1.46e-05  
    9   -1022.3075867765      2.40e-06  Convergence criterion met
 ---------------------------------------
 SCF time:   CPU 73.50s  wall 74.00s 
 SCF   energy in the final basis set =    -1022.3075867765
 Total energy in the final basis set =    -1022.3075867765
 
 --------------------------------------------------------------
 
                    Orbital Energies (a.u.)
 --------------------------------------------------------------
 
 Alpha MOs
 -- Occupied --
-88.8982 -10.2143 -10.2088 -10.1963 -10.1937 -10.1930 -10.1883 -10.1824
-10.1818 -10.1803 -10.1775 -10.1775 -10.1753 -10.1750 -10.1738 -10.1728
-10.1683  -7.9601  -5.9240  -5.9205  -5.9172  -0.8875  -0.8191  -0.8056
 -0.7945  -0.7709  -0.7578  -0.7279  -0.7033  -0.6865  -0.6568  -0.6247
 -0.6132  -0.5871  -0.5713  -0.5445  -0.5294  -0.5245  -0.4909  -0.4729
 -0.4650  -0.4600  -0.4573  -0.4492  -0.4367  -0.4177  -0.4139  -0.4074
 -0.3988  -0.3926  -0.3857  -0.3781  -0.3744  -0.3620  -0.3598  -0.3527
 -0.3518  -0.3421  -0.3342  -0.3303  -0.3231  -0.3166  -0.3130  -0.3066
 -0.3014  -0.2672  -0.2439  -0.1922
 -- Virtual --
 -0.0503   0.0123   0.0302   0.0765   0.0831   0.0973   0.1009   0.1031
  0.1064   0.1171   0.1185   0.1291   0.1367   0.1408   0.1425   0.1498
  0.1615   0.1674   0.1686   0.1795   0.1811   0.1867   0.1899   0.1956
  0.2045   0.2100   0.2150   0.2196   0.2248   0.2301   0.2372   0.2445
  0.2472   0.2526   0.2576   0.2625   0.2733   0.3007   0.3050   0.3190
  0.3282   0.3363   0.3523   0.3670   0.3713   0.4136   0.4472   0.4669
  0.4796   0.4939   0.5020   0.5106   0.5182   0.5235   0.5315   0.5395
  0.5430   0.5505   0.5611   0.5721   0.5759   0.5834   0.5995   0.6038
  0.6102   0.6190   0.6295   0.6352   0.6479   0.6528   0.6586   0.6687
  0.6786   0.6819   0.6889   0.6964   0.6991   0.7079   0.7126   0.7301
  0.7408   0.7672   0.7874   0.8032   0.8122   0.8240   0.8328   0.8437
  0.8578   0.8618   0.8657   0.8686   0.8759   0.8769   0.8785   0.8849
  0.8876   0.8899   0.8936   0.9013   0.9162   0.9196   0.9267   0.9456
  0.9530   0.9571   0.9639   0.9661   0.9755   0.9821   0.9880   0.9949
  1.0155   1.0170   1.0217   1.0247   1.0327   1.0382   1.0459   1.0533
  1.0727   1.1003   1.1046   1.1178   1.1371   1.1554   1.1706   1.2230
  1.2294   1.2562   1.2913   1.3019   1.3398   1.3641   1.3764   1.3810
  1.4235   1.4290   1.4424   1.4561   1.4668   1.4842   1.4900   1.5198
  1.5640   1.5898   1.6034   1.6116   1.6253   1.6355   1.6633   1.7090
  1.7135   1.7301   1.7429   1.7579   1.7836   1.7931   1.8261   1.8544
  1.8639   1.8705   1.8981   1.9125   1.9283   1.9504   1.9687   1.9810
  1.9842   1.9901   1.9980   2.0178   2.0264   2.0407   2.0493   2.0527
  2.0706   2.0859   2.1005   2.1182   2.1275   2.1505   2.1716   2.2034
  2.2072   2.2282   2.2380   2.2494   2.2656   2.2716   2.3094   2.3235
  2.3299   2.3357   2.3705   2.3951   2.3978   2.4231   2.4249   2.4504
  2.4622   2.4683   2.4769   2.5211   2.5319   2.5532   2.5855   2.6074
  2.6270   2.6341   2.6502   2.7009   2.7268   2.7428   2.7514   2.8097
  2.8456   2.8713   2.9641   3.0529   3.1323   3.2225   3.9750   4.0909
  4.1155   4.1240   4.1420   4.1593   4.1882   4.2270   4.2700   4.3206
  4.3569   4.4398   4.4585   4.5015   4.5402   4.5678   4.6686
 --------------------------------------------------------------
 
          Ground-State Mulliken Net Atomic Charges

     Atom                 Charge (a.u.)
  ----------------------------------------
      1 C                    -0.343903
      2 C                    -0.086937
      3 C                    -0.133146
      4 C                    -0.166066
      5 C                     0.151084
      6 C                    -0.340505
      7 C                    -0.269954
      8 C                    -0.257176
      9 C                    -0.264797
     10 C                    -0.260032
     11 C                    -0.254950
     12 C                    -0.253362
     13 C                    -0.444887
     14 C                    -0.205100
     15 C                    -0.056629
     16 C                    -0.376174
     17 S                     0.232634
     18 H                     0.145809
     19 H                     0.141567
     20 H                     0.136315
     21 H                     0.136845
     22 H                     0.150820
     23 H                     0.160072
     24 H                     0.137133
     25 H                     0.139159
     26 H                     0.136570
     27 H                     0.128280
     28 H                     0.133025
     29 H                     0.134208
     30 H                     0.126972
     31 H                     0.132238
     32 H                     0.132033
     33 H                     0.127153
     34 H                     0.133293
     35 H                     0.130901
     36 H                     0.147588
     37 H                     0.142571
     38 H                     0.142383
     39 H                     0.136439
     40 H                     0.154981
     41 H                     0.143546
  ----------------------------------------
  Sum of atomic charges =     0.000000

 -----------------------------------------------------------------
                    Cartesian Multipole Moments
 -----------------------------------------------------------------
    Charge (ESU x 10^10)
                -0.0000
    Dipole Moment (Debye)
         X       1.3872      Y      -0.2123      Z       0.2029
       Tot       1.4180
    Quadrupole Moments (Debye-Ang)
        XX    -113.5748     XY       1.5508     YY    -107.0184
        XZ       1.0782     YZ      -0.2077     ZZ    -117.1452
    Octopole Moments (Debye-Ang^2)
       XXX     -10.0058    XXY     -11.8933    XYY     -15.5965
       YYY      -0.2871    XXZ      -4.8420    XYZ       0.6287
       YYZ      -0.4605    XZZ      13.4403    YZZ       1.0196
       ZZZ       2.7938
    Hexadecapole Moments (Debye-Ang^3)
      XXXX   -9459.6863   XXXY      62.8495   XXYY   -1858.8148
      XYYY       8.5386   YYYY   -1868.9075   XXXZ      61.3658
      XXYZ      -0.3849   XYYZ       9.4270   YYYZ      -7.7414
      XXZZ   -1743.3924   XYZZ      -5.4587   YYZZ    -427.6268
      XZZZ       0.4397   YZZZ       2.4815   ZZZZ    -397.1415
 -----------------------------------------------------------------
Archival summary:
1\1\nia0005.scinet.local\SP\ProcedureUnspecified\6-31G*\11624\rhickman\MonFeb708:45:162022MonFeb708:45:162022\0\\#,ProcedureUnspecified,6-31G*,\\0,1\S\C,1,1.73555\C,2,1.3728,1,110.666\H,3,1.07377,2,122.185,1,-179.844,0\C,3,1.40542,2,114.151,1,0.107954,0\C,5,1.38239,3,112.298,2,-0.240247,0\C,6,1.43625,5,127.646,3,-179.488,0\H,7,1.08205,6,115.152,5,0.0630551,0\C,7,1.33103,6,124.997,5,179.874,0\H,9,1.07549,7,121.706,6,-179.938,0\H,9,1.0775,7,121.455,6,0.00637211,0\C,2,1.43773,1,119.368,3,179.978,0\H,12,1.08246,2,114.862,1,0.143873,0\C,12,1.33122,2,125.413,1,-179.828,0\H,14,1.07555,12,121.282,2,179.996,0\H,14,1.07611,12,122.234,2,0.00321687,0\C,5,1.5021,3,125.098,2,-179.842,0\H,17,1.09393,5,108.325,3,114.107,0\H,17,1.09433,5,108.745,3,-129.548,0\C,17,1.52712,5,114.072,3,-8.16769,0\H,20,1.09221,17,109.699,5,64.1307,0\H,20,1.09272,17,108.684,5,-53.9264,0\C,20,1.53005,17,112.732,5,-174.201,0\H,23,1.09146,20,108.103,17,168.774,0\H,23,1.09301,20,109.345,17,51.897,0\C,23,1.52725,20,113.249,17,-70.3153,0\H,26,1.09142,23,109.298,20,-59.6203,0\H,26,1.09215,23,109.35,20,57.5911,0\C,26,1.52981,23,113.212,20,177.547,0\H,29,1.09179,26,108.498,23,-175.345,0\H,29,1.0934,26,108.587,23,-59.1973,0\C,29,1.53058,26,115.295,23,62.0717,0\H,32,1.0919,29,109.282,26,-64.6002,0\H,32,1.09327,29,107.895,26,179.235,0\C,32,1.52937,29,115.023,26,57.922,0\H,35,1.09124,32,109.867,29,-61.2607,0\H,35,1.09308,32,108.035,29,-177.915,0\C,35,1.5241,32,113.224,29,61.4963,0\H,38,1.08689,35,111.114,32,-65.8503,0\H,38,1.0879,35,110.299,32,174.3,0\H,38,1.08807,35,110.453,32,54.5702,0\\\@

 Total job time:  74.19s(wall), 73.79s(cpu) 
 Mon Feb  7 08:45:16 2022

        *************************************************************
        *                                                           *
        *  Thank you very much for using Q-Chem.  Have a nice day.  *
        *                                                           *
        *************************************************************


