17
 energy: -32.839039385597 gnorm: 0.000019475235 xtb: 6.4.1 (23d549d)
C         4.52640450560000   -0.71404491650000   -0.00055240550000
C         3.56735269020000    0.20874660110000   -0.00094239630000
C         2.15462530750000   -0.06361261570000   -0.00020515200000
C         1.48473865320000   -1.26410196470000    0.00021729560000
C         0.09209252500000   -1.13126328750000    0.00068856850000
C        -0.32735752670000    0.17805387730000    0.00073098740000
C        -1.65189339840000    0.72942461760000    0.00106159200000
C        -2.78821537420000    0.04102311400000    0.00007496990000
F        -2.91859982100000   -1.28115306700000   -0.00141484820000
F        -3.99240782960000    0.60546302470000    0.00038572160000
S         1.03111603180000    1.26010494070000    0.00018509650000
H         5.56581002300000   -0.43798525960000   -0.00128170520000
H         4.30916511820000   -1.76789998360000    0.00053228650000
H         3.83041082370000    1.25855788790000   -0.00189154440000
H         1.98439778200000   -2.21547175100000    0.00017574740000
H        -0.58392296010000   -1.96647647150000    0.00112483550000
H        -1.74153500130000    1.80507051030000    0.00205894460000
