23
 energy: -33.953686959434 gnorm: 0.000032511229 xtb: 6.4.1 (23d549d)
C         3.96100552720000    0.09487304170000    0.02230875860000
C         3.00980305160000   -0.83065002440000   -0.01073483790000
C         1.57278588920000   -0.59910852530000   -0.00352071670000
C         0.70168225590000   -1.68432510940000   -0.04057494710000
N        -0.61630740400000   -1.57565330180000   -0.03138072750000
C        -1.15628839600000   -0.37083615170000    0.01230763160000
O        -2.49653589630000   -0.26943607220000    0.01525827810000
C        -3.21337776340000   -1.48756181480000   -0.02169566150000
C        -0.39072802410000    0.81991155660000    0.05095339410000
C        -1.06854810650000    2.10786246600000    0.10574334570000
C        -0.51251554910000    3.28967573220000   -0.13095532950000
C         0.98636218150000    0.66974154800000    0.04708248560000
H         5.00311194210000   -0.17415221390000    0.01329375920000
H         3.74843503870000    1.14951542290000    0.06023271550000
H         3.29177654120000   -1.87597509570000   -0.04821159960000
H         1.07526634990000   -2.69997969880000   -0.07512272410000
H        -4.26661758640000   -1.21465478900000   -0.01023150900000
H        -2.96922715940000   -2.10547247790000    0.84512298220000
H        -2.97409628660000   -2.04814649730000   -0.92784322620000
H        -2.12148809950000    2.04618538010000    0.34366414080000
H         0.52372826940000    3.40247444040000   -0.40176122230000
H        -1.08567914130000    4.19867696430000   -0.07155624630000
H         1.61082996580000    1.54736501840000    0.09789919830000
