
Running Job 1 of 1 fragments/C048/conf-1/spe_input.inp
qchem fragments/C048/conf-1/spe_input.inp_24876.0 /gpfs/fs0/scratch/a/aspuru/rhickman/descriptor_computation/qchem24876/ 0
/scinet/niagara/software/commercial/qc52/exe/qcprog.exe_s fragments/C048/conf-1/spe_input.inp_24876.0 /gpfs/fs0/scratch/a/aspuru/rhickman/descriptor_computation/qchem24876/
                  Welcome to Q-Chem
     A Quantum Leap Into The Future Of Chemistry


 Q-Chem 5.2, Q-Chem, Inc., Pleasanton, CA (2019)

 License issued to: SRG Alan Aspuru-Guzik, University of Toronto

 Yihan Shao,  Zhengting Gan,  E. Epifanovsky,  A. T. B. Gilbert,  M. Wormit,  
 J. Kussmann,  A. W. Lange,  A. Behn,  Jia Deng,  Xintian Feng,  D. Ghosh,  
 M. Goldey,  P. R. Horn,  L. D. Jacobson,  I. Kaliman,  T. Kus,  A. Landau,  
 Jie Liu,  E. I. Proynov,  R. M. Richard,  R. P. Steele,  E. J. Sundstrom,  
 H. L. Woodcock III,  P. M. Zimmerman,  D. Zuev,  B. Albrecht,  E. Alguire,  
 S. A. Baeppler,  D. Barton,  Z. Benda,  Y. A. Bernard,  E. J. Berquist,  
 K. B. Bravaya,  H. Burton,  D. Casanova,  Chun-Min Chang,  Yunqing Chen,  
 A. Chien,  K. D. Closser,  M. P. Coons,  S. Coriani,  S. Dasgupta,  
 A. L. Dempwolff,  M. Diedenhofen,  Hainam Do,  R. G. Edgar,  Po-Tung Fang,  
 S. Faraji,  S. Fatehi,  Qingguo Feng,  K. D. Fenk,  J. Fosso-Tande,  
 J. Gayvert,  Qinghui Ge,  A. Ghysels,  G. Gidofalvi,  J. Gomes,  
 J. Gonthier,  A. Gunina,  D. Hait,  M. W. D. Hanson-Heine,  
 P. H. P. Harbach,  A. W. Hauser,  M. F. Herbst,  J. E. Herr,  
 E. G. Hohenstein,  Z. C. Holden,  Kerwin Hui,  B. C. Huynh,  T.-C. Jagau,  
 Hyunjun Ji,  B. Kaduk,  K. Khistyaev,  Jaehoon Kim,  P. Klunzinger,  K. Koh,  
 D. Kosenkov,  L. Koulias,  T. Kowalczyk,  C. M. Krauter,  A. Kunitsa,  
 Ka Un Lao,  A. Laurent,  K. V. Lawler,  Joonho Lee,  D. Lefrancois,  
 S. Lehtola,  D. S. Levine,  Yi-Pei Li,  You-Sheng Lin,  Fenglai Liu,  
 E. Livshits,  A. Luenser,  P. Manohar,  E. Mansoor,  S. F. Manzer,  
 Shan-Ping Mao,  Yuezhi Mao,  N. Mardirossian,  A. V. Marenich,  
 T. Markovich,  L. A. Martinez-Martinez,  S. A. Maurer,  N. J. Mayhall,  
 S. C. McKenzie,  J.-M. Mewes,  P. Morgante,  A. F. Morrison,  
 J. W. Mullinax,  K. Nanda,  T. S. Nguyen-Beck,  R. Olivares-Amaya,  
 J. A. Parkhill,  Zheng Pei,  T. M. Perrine,  F. Plasser,  P. Pokhilko,  
 S. Prager,  A. Prociuk,  E. Ramos,  D. R. Rehn,  F. Rob,  M. Scheurer,  
 M. Schneider,  N. Sergueev,  S. M. Sharada,  S. Sharma,  D. W. Small,  
 T. Stauch,  T. Stein,  Yu-Chuan Su,  A. J. W. Thom,  A. Tkatchenko,  
 T. Tsuchimochi,  N. M. Tubman,  L. Vogt,  M. L. Vidal,  O. Vydrov,  
 M. A. Watson,  J. Wenzel,  M. de Wergifosse,  T. A. Wesolowski,  A. White,  
 J. Witte,  A. Yamada,  Jun Yang,  K. Yao,  S. Yeganeh,  S. R. Yost,  
 Zhi-Qiang You,  A. Zech,  Igor Ying Zhang,  Xing Zhang,  Yan Zhao,  
 Ying Zhu,  B. R. Brooks,  G. K. L. Chan,  C. J. Cramer,  M. S. Gordon,  
 W. J. Hehre,  A. Klamt,  M. W. Schmidt,  C. D. Sherrill,  D. G. Truhlar,  
 A. Aspuru-Guzik,  R. Baer,  A. T. Bell,  N. A. Besley,  Jeng-Da Chai,  
 A. E. DePrince, III,  R. A. DiStasio Jr.,  A. Dreuw,  B. D. Dunietz,  
 T. R. Furlani,  Chao-Ping Hsu,  Yousung Jung,  Jing Kong,  D. S. Lambrecht,  
 WanZhen Liang,  C. Ochsenfeld,  V. A. Rassolov,  L. V. Slipchenko,  
 J. E. Subotnik,  T. Van Voorhis,  J. M. Herbert,  A. I. Krylov,  
 P. M. W. Gill,  M. Head-Gordon

 Contributors to earlier versions of Q-Chem not listed above: 
 R. D. Adamson,  B. Austin,  J. Baker,  G. J. O. Beran,  K. Brandhorst,  
 S. T. Brown,  E. F. C. Byrd,  A. K. Chakraborty,  C.-L. Cheng,  
 Siu Hung Chien,  D. M. Chipman,  D. L. Crittenden,  H. Dachsel,  
 R. J. Doerksen,  A. D. Dutoi,  L. Fusti-Molnar,  W. A. Goddard III,  
 A. Golubeva-Zadorozhnaya,  S. R. Gwaltney,  G. Hawkins,  A. Heyden,  
 S. Hirata,  G. Kedziora,  F. J. Keil,  C. Kelley,  Jihan Kim,  R. A. King,  
 R. Z. Khaliullin,  P. P. Korambath,  W. Kurlancheek,  A. M. Lee,  M. S. Lee,  
 S. V. Levchenko,  Ching Yeh Lin,  D. Liotard,  R. C. Lochan,  I. Lotan,  
 P. E. Maslen,  N. Nair,  D. P. O'Neill,  D. Neuhauser,  E. Neuscamman,  
 C. M. Oana,  R. Olson,  B. Peters,  R. Peverati,  P. A. Pieniazek,  
 Y. M. Rhee,  J. Ritchie,  M. A. Rohrdanz,  E. Rosta,  N. J. Russ,  
 H. F. Schaefer III,  N. E. Schultz,  N. Shenvi,  A. C. Simmonett,  A. Sodt,  
 D. Stuck,  K. S. Thanthiriwatte,  V. Vanovschi,  Tao Wang,  A. Warshel,  
 C. F. Williams,  Q. Wu,  X. Xu,  W. Zhang

 Please cite Q-Chem as follows:
 Y. Shao et al., Mol. Phys. 113, 184-215 (2015)
 DOI: 10.1080/00268976.2014.952696

 Q-Chem 5.2.1 for Intel X86 EM64T Linux

 Parts of Q-Chem use Armadillo 8.300.2 (Tropical Shenanigans).
 http://arma.sourceforge.net/

 Q-Chem begins on Mon Feb  7 12:23:07 2022  

Host: 
0

     Scratch files written to /gpfs/fs0/scratch/a/aspuru/rhickman/descriptor_computation/qchem24876//
 Jul1719 |scratch|qcdevops|jenkins|workspace|build_RNUM -1
Processing $rem in /scinet/niagara/software/commercial/qc52/config/preferences:
	 MEM_TOTAL  4000 
NAlpha2: 110
NElect   110
Mult     1

Checking the input file for inconsistencies... 	...done.

--------------------------------------------------------------
User input:
--------------------------------------------------------------
$molecule
0 1
C        -4.30695480310000    0.76789900810000   -0.63345673860000
C        -3.33356159430000    1.40538666710000    0.00350077580000
C        -1.94170028780000    0.96587700240000    0.08745040890000
C        -0.94889383860000    1.94720932620000    0.03426552280000
C         0.39068719580000    1.61296519500000    0.03721627080000
C         0.74000770740000    0.27790113390000    0.11501664070000
S         2.47056226770000   -0.18334665250000    0.07910197530000
C         2.80626185160000   -0.35334809560000   -1.70158397340000
O         3.26197985940000    0.90700964440000    0.58111561570000
O         2.62776392950000   -1.47635011250000    0.68823449100000
C        -0.21453594020000   -0.70923762940000    0.20781460090000
C        -1.57198199720000   -0.38844548930000    0.19880852180000
C        -2.56548806500000   -1.44476703060000    0.38211891920000
C        -2.43957768010000   -2.68600346770000   -0.06733110060000
H        -5.30549893850000    1.16861134500000   -0.67710391530000
H        -4.13896961570000   -0.15961693430000   -1.15425295180000
H        -3.53572240200000    2.36532243730000    0.46292920590000
H        -1.24330282820000    2.98491313730000   -0.02667315790000
H         1.16748329950000    2.36007716190000    0.00343137710000
H         2.61411249600000    0.60179715990000   -2.17228477890000
H         2.15672501360000   -1.12556166790000   -2.09218252420000
H         3.84560622630000   -0.63392524910000   -1.81747014380000
H         0.11138529400000   -1.73041507260000    0.32816459990000
H        -3.45015412180000   -1.15812116250000    0.93619972790000
H        -1.59253569470000   -3.00052250070000   -0.65369367680000
H        -3.19237959290000   -3.43204836670000    0.12021412050000
$end

$rem
BASIS = 6-31G*
GUI = 2
METHOD = B3LYP
PRINT_ORBITALS false
MOLDEN_FORMAT false
--------------------------------------------------------------
 ----------------------------------------------------------------
             Standard Nuclear Orientation (Angstroms)
    I     Atom           X                Y                Z
 ----------------------------------------------------------------
    1      C       4.2754911049     0.6328991230     0.5919830408
    2      C       3.3262153234     1.2921622777    -0.0590525288
    3      C       1.9193103484     0.9019622579    -0.1355804246
    4      C       0.9628674944     1.9196591732    -0.1036984055
    5      C      -0.3879929305     1.6343947982    -0.1013441257
    6      C      -0.7856552760     0.3116103465    -0.1521350493
    7      S      -2.5318698610    -0.0855201788    -0.1087710239
    8      C      -2.8742715225    -0.2065620286     1.6746378249
    9      O      -3.2828588594     1.0223669323    -0.6339738676
   10      O      -2.7357899996    -1.3841914828    -0.6914219941
   11      C       0.1323551118    -0.7113096072    -0.2235470288
   12      C       1.5005764676    -0.4400111496    -0.2195504535
   13      C       2.4550420917    -1.5353314209    -0.3799907319
   14      C       2.2838399630    -2.7616648183     0.0946911274
   15      H       5.2879438462     0.9978205702     0.6285566261
   16      H       4.0736342033    -0.2769905133     1.1315089284
   17      H       3.5633801467     2.2344609033    -0.5378492543
   18      H       1.2948357177     2.9469949261    -0.0637268517
   19      H      -1.1370878928     2.4098165262    -0.0838005196
   20      H      -2.6476700675     0.7504295864     2.1258605102
   21      H      -2.2534405922    -0.9937109072     2.0817554147
   22      H      -3.9231895861    -0.4466899482     1.7950510746
   23      H      -0.2304782510    -1.7222076329    -0.3232930874
   24      H       3.3497863140    -1.2925165225    -0.9388101393
   25      H       1.4256667572    -3.0330342780     0.6864011773
   26      H       3.0090589956    -3.5383071572    -0.0766300720
 ----------------------------------------------------------------
 Molecular Point Group                 C1    NOp =  1
 Largest Abelian Subgroup              C1    NOp =  1
 Nuclear Repulsion Energy =         987.10093914 hartrees
 There are       55 alpha and       55 beta electrons
 Requested basis set is 6-31G(d)
 There are 81 shells and 238 basis functions

 Total QAlloc Memory Limit   4000 MB
 Mega-Array Size       188 MB
 MEM_STATIC part       192 MB
 A cutoff of  1.0D-08 yielded   2163 shell pairs
 There are     20160 function pairs
 Smallest overlap matrix eigenvalue = 3.61E-04

 Scale SEOQF with 1.000000e-02/1.000000e-01/1.000000e-01

 Standard Electronic Orientation quadrupole field applied
 Nucleus-field energy     =     0.0000000116 hartrees
 Guess from superposition of atomic densities
 Warning:  Energy on first SCF cycle will be non-variational
 SAD guess density has 110.000000 electrons

 -----------------------------------------------------------------------
  General SCF calculation program by
  Eric Jon Sundstrom, Paul Horn, Yuezhi Mao, Dmitri Zuev, Alec White,
  David Stuck, Shaama M.S., Shane Yost, Joonho Lee, David Small,
  Daniel Levine, Susi Lehtola, Hugh Burton, Evgeny Epifanovsky,
  Bang C. Huynh
 -----------------------------------------------------------------------
 Exchange:     0.2000 Hartree-Fock + 0.0800 Slater + 0.7200 B88
 Correlation:  0.1900 VWN1RPA + 0.8100 LYP
 Using SG-1 standard quadrature grid
 A restricted SCF calculation will be
 performed using DIIS
 SCF converges when DIIS error is below 1.0e-05
 ---------------------------------------
  Cycle       Energy         DIIS error
 ---------------------------------------
    1    -978.4424990300      5.45e-02  
    2    -974.5649255658      7.62e-03  
    3    -974.1047221142      1.22e-02  
    4    -974.8882389414      2.26e-03  
    5    -974.9215339875      5.34e-04  
    6    -974.9228081481      3.15e-04  
    7    -974.9235402466      7.80e-05  
    8    -974.9235839206      1.82e-05  
    9    -974.9235860219      6.44e-06  Convergence criterion met
 ---------------------------------------
 SCF time:   CPU 42.15s  wall 42.00s 
 SCF   energy in the final basis set =     -974.9235860219
 Total energy in the final basis set =     -974.9235860219
 
 --------------------------------------------------------------
 
                    Orbital Energies (a.u.)
 --------------------------------------------------------------
 
 Alpha MOs
 -- Occupied --
-89.0880 -19.1308 -19.1308 -10.2230 -10.2193 -10.2185 -10.2164 -10.2117
-10.2103 -10.2082 -10.2063 -10.2002 -10.1966 -10.1900  -8.1179  -6.0822
 -6.0815  -6.0811  -1.1105  -1.0010  -0.8927  -0.8241  -0.8047  -0.7765
 -0.7524  -0.7402  -0.6646  -0.6489  -0.6023  -0.5872  -0.5623  -0.5269
 -0.5073  -0.4885  -0.4767  -0.4719  -0.4631  -0.4565  -0.4509  -0.4364
 -0.4346  -0.4226  -0.4089  -0.3924  -0.3850  -0.3649  -0.3592  -0.3302
 -0.3143  -0.3116  -0.3070  -0.2944  -0.2856  -0.2600  -0.2385
 -- Virtual --
 -0.0554  -0.0371   0.0204   0.0307   0.0764   0.0928   0.0993   0.1048
  0.1161   0.1193   0.1246   0.1305   0.1393   0.1490   0.1533   0.1634
  0.1720   0.1809   0.1881   0.1985   0.2072   0.2577   0.2893   0.3046
  0.3219   0.3262   0.3339   0.3410   0.3670   0.3809   0.3906   0.4344
  0.4469   0.4674   0.5021   0.5124   0.5176   0.5256   0.5360   0.5472
  0.5531   0.5569   0.5643   0.5747   0.5836   0.5918   0.6081   0.6150
  0.6189   0.6324   0.6535   0.6761   0.6791   0.6862   0.6972   0.7075
  0.7128   0.7667   0.7843   0.7989   0.8068   0.8187   0.8255   0.8421
  0.8438   0.8516   0.8570   0.8610   0.8677   0.8815   0.8881   0.9070
  0.9248   0.9366   0.9419   0.9452   0.9555   0.9653   0.9750   1.0006
  1.0010   1.0278   1.0364   1.0608   1.0833   1.0959   1.1096   1.1294
  1.1383   1.1800   1.1855   1.2096   1.2179   1.2219   1.2443   1.2544
  1.2991   1.3100   1.3481   1.3898   1.4147   1.4417   1.4489   1.4637
  1.4818   1.5071   1.5145   1.5393   1.5534   1.6149   1.6264   1.6710
  1.6935   1.7163   1.7581   1.7714   1.7752   1.7841   1.8233   1.8257
  1.8471   1.8591   1.8761   1.8991   1.9046   1.9437   1.9642   1.9752
  1.9908   1.9993   2.0119   2.0635   2.0911   2.0991   2.1077   2.1415
  2.1495   2.1550   2.1821   2.2074   2.2169   2.2263   2.2396   2.2438
  2.2631   2.2830   2.2931   2.3142   2.3381   2.3707   2.3967   2.4566
  2.4964   2.5961   2.6028   2.6337   2.6506   2.7055   2.7335   2.7426
  2.7510   2.7979   2.8354   2.8606   2.9123   2.9266   3.0287   3.2063
  3.4183   3.8603   3.9092   4.0103   4.0909   4.1102   4.1200   4.1410
  4.1610   4.2268   4.2457   4.2845   4.4033   4.4431   4.7485
 --------------------------------------------------------------
 
          Ground-State Mulliken Net Atomic Charges

     Atom                 Charge (a.u.)
  ----------------------------------------
      1 C                    -0.337790
      2 C                    -0.138099
      3 C                     0.105604
      4 C                    -0.182912
      5 C                    -0.146133
      6 C                    -0.152108
      7 S                     1.074216
      8 C                    -0.625228
      9 O                    -0.521936
     10 O                    -0.521495
     11 C                    -0.212530
     12 C                     0.111053
     13 C                    -0.134022
     14 C                    -0.341107
     15 H                     0.151756
     16 H                     0.166969
     17 H                     0.142974
     18 H                     0.142599
     19 H                     0.175230
     20 H                     0.197791
     21 H                     0.197358
     22 H                     0.216940
     23 H                     0.180239
     24 H                     0.154775
     25 H                     0.146355
     26 H                     0.149503
  ----------------------------------------
  Sum of atomic charges =     0.000000

 -----------------------------------------------------------------
                    Cartesian Multipole Moments
 -----------------------------------------------------------------
    Charge (ESU x 10^10)
                 0.0000
    Dipole Moment (Debye)
         X       4.2496      Y       0.7777      Z       3.4116
       Tot       5.5048
    Quadrupole Moments (Debye-Ang)
        XX     -91.3217     XY       0.5767     YY     -85.3226
        XZ     -11.7042     YZ      -2.1737     ZZ     -89.2398
    Octopole Moments (Debye-Ang^2)
       XXX      40.0185    XXY      -2.1155    XYY      14.2228
       YYY       6.1546    XXZ      34.2487    XYZ      -0.2170
       YYZ       3.8174    XZZ     -18.3013    YZZ      -2.0811
       ZZZ       1.9343
    Hexadecapole Moments (Debye-Ang^3)
      XXXX   -3268.5125   XXXY      56.2258   XXYY    -732.3267
      XYYY     -17.8487   YYYY    -939.9773   XXXZ     -95.9018
      XXYZ      -6.8715   XYYZ     -18.8211   YYYZ     -13.3941
      XXZZ    -605.8881   XYZZ      -0.3729   YYZZ    -226.3371
      XZZZ      -5.2369   YZZZ      -2.1574   ZZZZ    -290.9554
 -----------------------------------------------------------------
Archival summary:
1\1\nia1977.scinet.local\SP\ProcedureUnspecified\6-31G*\121112\rhickman\MonFeb712:23:502022MonFeb712:23:502022\0\\#,ProcedureUnspecified,6-31G*,\\0,1\S\O,1,1.43779\O,1,1.43792,2,118.284\C,1,1.79133,2,109.238,3,125.667,0\C,4,1.3763,1,119.124,2,-154.074,0\H,5,1.07866,4,118.488,1,4.35651,0\C,4,1.3822,1,119.455,2,26.4982,0\H,7,1.0783,4,119.271,1,-2.89639,0\C,7,1.38065,4,118.631,1,178.477,0\H,9,1.08038,7,119.805,4,-179.953,0\C,5,1.39487,4,120.635,1,-178.114,0\C,9,1.39696,7,121.292,4,-0.981804,0\C,11,1.46167,5,119.634,4,-176.206,0\H,13,1.0825,11,115.361,5,144.713,0\C,13,1.32609,11,124.708,5,-34.761,0\H,15,1.07632,13,121.555,11,178.297,0\H,15,1.07714,13,122.173,11,-2.88099,0\C,12,1.46202,9,117.595,7,-176.609,0\H,18,1.08325,12,114.817,9,-33.8376,0\C,18,1.3265,12,125.57,9,142.429,0\H,20,1.07683,18,121.405,12,-178.145,0\H,20,1.07691,18,122.118,12,0.222232,0\C,1,1.82001,2,108.115,3,-123.146,0\H,23,1.08203,1,108.007,2,-175.903,0\H,23,1.08203,1,108.084,2,-55.1482,0\H,23,1.08277,1,107.817,2,64.4953,0\\\@

 Total job time:  42.49s(wall), 42.36s(cpu) 
 Mon Feb  7 12:23:50 2022

        *************************************************************
        *                                                           *
        *  Thank you very much for using Q-Chem.  Have a nice day.  *
        *                                                           *
        *************************************************************


