
Running Job 1 of 1 fragments/C016/conf-0/spe_input.inp
qchem fragments/C016/conf-0/spe_input.inp_313007.0 /gpfs/fs0/scratch/a/aspuru/rhickman/descriptor_computation/qchem313007/ 0
/scinet/niagara/software/commercial/qc52/exe/qcprog.exe_s fragments/C016/conf-0/spe_input.inp_313007.0 /gpfs/fs0/scratch/a/aspuru/rhickman/descriptor_computation/qchem313007/
                  Welcome to Q-Chem
     A Quantum Leap Into The Future Of Chemistry


 Q-Chem 5.2, Q-Chem, Inc., Pleasanton, CA (2019)

 License issued to: SRG Alan Aspuru-Guzik, University of Toronto

 Yihan Shao,  Zhengting Gan,  E. Epifanovsky,  A. T. B. Gilbert,  M. Wormit,  
 J. Kussmann,  A. W. Lange,  A. Behn,  Jia Deng,  Xintian Feng,  D. Ghosh,  
 M. Goldey,  P. R. Horn,  L. D. Jacobson,  I. Kaliman,  T. Kus,  A. Landau,  
 Jie Liu,  E. I. Proynov,  R. M. Richard,  R. P. Steele,  E. J. Sundstrom,  
 H. L. Woodcock III,  P. M. Zimmerman,  D. Zuev,  B. Albrecht,  E. Alguire,  
 S. A. Baeppler,  D. Barton,  Z. Benda,  Y. A. Bernard,  E. J. Berquist,  
 K. B. Bravaya,  H. Burton,  D. Casanova,  Chun-Min Chang,  Yunqing Chen,  
 A. Chien,  K. D. Closser,  M. P. Coons,  S. Coriani,  S. Dasgupta,  
 A. L. Dempwolff,  M. Diedenhofen,  Hainam Do,  R. G. Edgar,  Po-Tung Fang,  
 S. Faraji,  S. Fatehi,  Qingguo Feng,  K. D. Fenk,  J. Fosso-Tande,  
 J. Gayvert,  Qinghui Ge,  A. Ghysels,  G. Gidofalvi,  J. Gomes,  
 J. Gonthier,  A. Gunina,  D. Hait,  M. W. D. Hanson-Heine,  
 P. H. P. Harbach,  A. W. Hauser,  M. F. Herbst,  J. E. Herr,  
 E. G. Hohenstein,  Z. C. Holden,  Kerwin Hui,  B. C. Huynh,  T.-C. Jagau,  
 Hyunjun Ji,  B. Kaduk,  K. Khistyaev,  Jaehoon Kim,  P. Klunzinger,  K. Koh,  
 D. Kosenkov,  L. Koulias,  T. Kowalczyk,  C. M. Krauter,  A. Kunitsa,  
 Ka Un Lao,  A. Laurent,  K. V. Lawler,  Joonho Lee,  D. Lefrancois,  
 S. Lehtola,  D. S. Levine,  Yi-Pei Li,  You-Sheng Lin,  Fenglai Liu,  
 E. Livshits,  A. Luenser,  P. Manohar,  E. Mansoor,  S. F. Manzer,  
 Shan-Ping Mao,  Yuezhi Mao,  N. Mardirossian,  A. V. Marenich,  
 T. Markovich,  L. A. Martinez-Martinez,  S. A. Maurer,  N. J. Mayhall,  
 S. C. McKenzie,  J.-M. Mewes,  P. Morgante,  A. F. Morrison,  
 J. W. Mullinax,  K. Nanda,  T. S. Nguyen-Beck,  R. Olivares-Amaya,  
 J. A. Parkhill,  Zheng Pei,  T. M. Perrine,  F. Plasser,  P. Pokhilko,  
 S. Prager,  A. Prociuk,  E. Ramos,  D. R. Rehn,  F. Rob,  M. Scheurer,  
 M. Schneider,  N. Sergueev,  S. M. Sharada,  S. Sharma,  D. W. Small,  
 T. Stauch,  T. Stein,  Yu-Chuan Su,  A. J. W. Thom,  A. Tkatchenko,  
 T. Tsuchimochi,  N. M. Tubman,  L. Vogt,  M. L. Vidal,  O. Vydrov,  
 M. A. Watson,  J. Wenzel,  M. de Wergifosse,  T. A. Wesolowski,  A. White,  
 J. Witte,  A. Yamada,  Jun Yang,  K. Yao,  S. Yeganeh,  S. R. Yost,  
 Zhi-Qiang You,  A. Zech,  Igor Ying Zhang,  Xing Zhang,  Yan Zhao,  
 Ying Zhu,  B. R. Brooks,  G. K. L. Chan,  C. J. Cramer,  M. S. Gordon,  
 W. J. Hehre,  A. Klamt,  M. W. Schmidt,  C. D. Sherrill,  D. G. Truhlar,  
 A. Aspuru-Guzik,  R. Baer,  A. T. Bell,  N. A. Besley,  Jeng-Da Chai,  
 A. E. DePrince, III,  R. A. DiStasio Jr.,  A. Dreuw,  B. D. Dunietz,  
 T. R. Furlani,  Chao-Ping Hsu,  Yousung Jung,  Jing Kong,  D. S. Lambrecht,  
 WanZhen Liang,  C. Ochsenfeld,  V. A. Rassolov,  L. V. Slipchenko,  
 J. E. Subotnik,  T. Van Voorhis,  J. M. Herbert,  A. I. Krylov,  
 P. M. W. Gill,  M. Head-Gordon

 Contributors to earlier versions of Q-Chem not listed above: 
 R. D. Adamson,  B. Austin,  J. Baker,  G. J. O. Beran,  K. Brandhorst,  
 S. T. Brown,  E. F. C. Byrd,  A. K. Chakraborty,  C.-L. Cheng,  
 Siu Hung Chien,  D. M. Chipman,  D. L. Crittenden,  H. Dachsel,  
 R. J. Doerksen,  A. D. Dutoi,  L. Fusti-Molnar,  W. A. Goddard III,  
 A. Golubeva-Zadorozhnaya,  S. R. Gwaltney,  G. Hawkins,  A. Heyden,  
 S. Hirata,  G. Kedziora,  F. J. Keil,  C. Kelley,  Jihan Kim,  R. A. King,  
 R. Z. Khaliullin,  P. P. Korambath,  W. Kurlancheek,  A. M. Lee,  M. S. Lee,  
 S. V. Levchenko,  Ching Yeh Lin,  D. Liotard,  R. C. Lochan,  I. Lotan,  
 P. E. Maslen,  N. Nair,  D. P. O'Neill,  D. Neuhauser,  E. Neuscamman,  
 C. M. Oana,  R. Olson,  B. Peters,  R. Peverati,  P. A. Pieniazek,  
 Y. M. Rhee,  J. Ritchie,  M. A. Rohrdanz,  E. Rosta,  N. J. Russ,  
 H. F. Schaefer III,  N. E. Schultz,  N. Shenvi,  A. C. Simmonett,  A. Sodt,  
 D. Stuck,  K. S. Thanthiriwatte,  V. Vanovschi,  Tao Wang,  A. Warshel,  
 C. F. Williams,  Q. Wu,  X. Xu,  W. Zhang

 Please cite Q-Chem as follows:
 Y. Shao et al., Mol. Phys. 113, 184-215 (2015)
 DOI: 10.1080/00268976.2014.952696

 Q-Chem 5.2.1 for Intel X86 EM64T Linux

 Parts of Q-Chem use Armadillo 8.300.2 (Tropical Shenanigans).
 http://arma.sourceforge.net/

 Q-Chem begins on Tue Feb  8 14:04:38 2022  

Host: 
0

     Scratch files written to /gpfs/fs0/scratch/a/aspuru/rhickman/descriptor_computation/qchem313007//
 Jul1719 |scratch|qcdevops|jenkins|workspace|build_RNUM -1
Processing $rem in /scinet/niagara/software/commercial/qc52/config/preferences:
	 MEM_TOTAL  4000 
NAlpha2: 150
NElect   150
Mult     1

Checking the input file for inconsistencies... 	...done.

--------------------------------------------------------------
User input:
--------------------------------------------------------------
$molecule
0 1
C         7.99329000050000   -0.66413748830000   -0.46602784790000
C         7.14121102130000    0.10681089810000    0.19979397910000
C         5.68695041460000    0.06622890760000    0.12933968100000
C         4.98421428910000   -0.83595106060000   -0.67151020310000
C         3.60593886650000   -0.83570964190000   -0.69940790070000
C         2.87144459190000    0.07005056840000    0.06531330790000
C         1.40417719820000    0.06986539910000    0.03097450550000
C         0.68971078820000   -1.12668897750000    0.01055001770000
C        -0.68977314600000   -1.12663103070000   -0.01348557080000
C        -1.40420394060000    0.06997255470000   -0.03273881450000
C        -2.87148609000000    0.07008070100000   -0.06634494210000
C        -3.60531683790000   -0.83654427440000    0.69800254060000
C        -4.98359303760000   -0.83727147180000    0.67075140670000
C        -5.68702011100000    0.06528738980000   -0.12905982840000
C        -7.14132793060000    0.10507310720000   -0.19903298610000
C        -7.99280729500000   -0.66154593760000    0.47247205410000
C        -4.94779888070000    0.96883312720000   -0.89569467760000
C        -3.56934011790000    0.97564033070000   -0.86347790600000
C        -0.68955679610000    1.26653279440000   -0.01980163260000
C         0.68958094660000    1.26646983670000    0.01873482640000
C         3.56861244160000    0.97513095490000    0.86360088050000
C         4.94704999820000    0.96891104720000    0.89633471150000
H         9.05748951580000   -0.55594558130000   -0.34451460270000
H         7.67509421090000   -1.42834898310000   -1.15406978870000
H         7.53526637770000    0.85695922140000    0.87546090330000
H         5.52163597100000   -1.54582016200000   -1.28126584310000
H         3.08527421910000   -1.53280246790000   -1.34028355650000
H         1.22377233320000   -2.06566184090000    0.03475211810000
H        -1.22389270900000   -2.06554869350000   -0.03850913700000
H        -3.08409601850000   -1.53403303190000    1.33799207180000
H        -5.52046299330000   -1.54812131850000    1.27984943280000
H        -7.53596462660000    0.85103689150000   -0.87901174270000
H        -7.67399365940000   -1.42094537960000    1.16555308100000
H        -9.05711054530000   -0.55430465360000    0.35103141900000
H        -5.46879617260000    1.67504712410000   -1.52753352170000
H        -3.02231792750000    1.67460401160000   -1.47971899020000
H        -1.22420692120000    2.20548605150000   -0.01917886990000
H         1.22430152550000    2.20538310810000    0.01876211100000
H         3.02103517070000    1.67333389520000    1.48020669280000
H         5.46749214240000    1.67480008180000    1.52899161070000
$end

$rem
BASIS = 6-31G*
GUI = 2
METHOD = B3LYP
PRINT_ORBITALS false
MOLDEN_FORMAT false
--------------------------------------------------------------
 ----------------------------------------------------------------
             Standard Nuclear Orientation (Angstroms)
    I     Atom           X                Y                Z
 ----------------------------------------------------------------
    1      C       7.9938098248    -0.6593571507    -0.4570676128
    2      C       7.1409797506     0.1115892512     0.2077941898
    3      C       5.6867994348     0.0710013363     0.1357050188
    4      C       4.9849677179    -0.8311831068    -0.6659325337
    5      C       3.6067245304    -0.8309472212    -0.6953797881
    6      C       2.8713673602     0.0748116796     0.0685132482
    7      C       1.4041395012     0.0746206102     0.0325248417
    8      C       0.6897012555    -1.1219366471     0.0112996242
    9      C      -0.6897547843    -1.1218842300    -0.0142868818
   10      C      -1.4041682312     0.0747164772    -0.0343458581
   11      C      -2.8714116708     0.0748187250    -0.0696016074
   12      C      -3.6060977002    -0.8318075581     0.6939222678
   13      C      -4.9843423879    -0.8325402872     0.6651215778
   14      C      -5.6868733839     0.0700140989    -0.1354819056
   15      C      -7.1411017726     0.1097938928    -0.2070901589
   16      C      -7.9933325185    -0.6568271222     0.4634587670
   17      C      -4.9467942917     0.9735611606    -0.9012870790
   18      C      -3.5683726480     0.9803739069    -0.8675205620
   19      C      -0.6895408332     1.2712795826    -0.0206077386
   20      C       0.6895527121     1.2712221838     0.0194792396
   21      C       3.5676336741     0.9798965135     0.8675822244
   22      C       4.9460335820     0.9736821497     0.9018658040
   23      H       9.0578716226    -0.5511607613    -0.3343582092
   24      H       7.6763908249    -1.4235713559    -1.1454652512
   25      H       7.5342722382     0.8617405602     0.8839021368
   26      H       5.5230774169    -1.5410513556    -1.2750820778
   27      H       3.0867835059    -1.5280434626    -1.3368389454
   28      H       1.2237389802    -2.0609073384     0.0361041249
   29      H      -1.2238421490    -2.0608040669    -0.0399089564
   30      H      -3.0855939719    -1.5292928998     1.3344988646
   31      H      -5.5218939821    -1.5433909857     1.2736171221
   32      H      -7.5349766906     0.8557546800    -0.8875137414
   33      H      -7.6752952903    -1.4162238407     1.1568993931
   34      H      -9.0574989880    -0.5495903209     0.3408214029
   35      H      -5.4670836910     1.6797717597    -1.5337127609
   36      H      -3.0206607475     1.6793384649    -1.4831477208
   37      H      -1.2241950478     2.2102307175    -0.0205880535
   38      H       1.2242691953     2.2101375791     0.0201057241
   39      H       3.0193607373     1.6780985753     1.4835705433
   40      H       5.4657613088     1.6795745816     1.5351059412
 ----------------------------------------------------------------
 Molecular Point Group                 C1    NOp =  1
 Largest Abelian Subgroup              C1    NOp =  1
 Nuclear Repulsion Energy =        1466.46406124 hartrees
 There are       75 alpha and       75 beta electrons
 Requested basis set is 6-31G(d)
 There are 124 shells and 366 basis functions

 Total QAlloc Memory Limit   4000 MB
 Mega-Array Size       188 MB
 MEM_STATIC part       192 MB
 A cutoff of  1.0D-08 yielded   3438 shell pairs
 There are     32402 function pairs
 Smallest overlap matrix eigenvalue = 3.75E-04

 Scale SEOQF with 1.000000e-02/1.000000e-01/1.000000e+00

 Standard Electronic Orientation quadrupole field applied
 Nucleus-field energy     =    -0.0000000365 hartrees
 Guess from superposition of atomic densities
 Warning:  Energy on first SCF cycle will be non-variational
 SAD guess density has 150.000000 electrons

 -----------------------------------------------------------------------
  General SCF calculation program by
  Eric Jon Sundstrom, Paul Horn, Yuezhi Mao, Dmitri Zuev, Alec White,
  David Stuck, Shaama M.S., Shane Yost, Joonho Lee, David Small,
  Daniel Levine, Susi Lehtola, Hugh Burton, Evgeny Epifanovsky,
  Bang C. Huynh
 -----------------------------------------------------------------------
 Exchange:     0.2000 Hartree-Fock + 0.0800 Slater + 0.7200 B88
 Correlation:  0.1900 VWN1RPA + 0.8100 LYP
 Using SG-1 standard quadrature grid
 A restricted SCF calculation will be
 performed using DIIS
 SCF converges when DIIS error is below 1.0e-05
 ---------------------------------------
  Cycle       Energy         DIIS error
 ---------------------------------------
    1    -854.6981172493      4.31e-02  
    2    -848.8617537759      3.95e-03  
    3    -848.9215799185      3.61e-03  
    4    -849.1580513218      3.32e-04  
    5    -849.1584764263      2.76e-04  
    6    -849.1598982822      5.55e-05  
    7    -849.1599471110      2.25e-05  
    8    -849.1599557078      4.09e-06  Convergence criterion met
 ---------------------------------------
 SCF time:   CPU 77.37s  wall 77.00s 
 SCF   energy in the final basis set =     -849.1599557078
 Total energy in the final basis set =     -849.1599557078
 
 --------------------------------------------------------------
 
                    Orbital Energies (a.u.)
 --------------------------------------------------------------
 
 Alpha MOs
 -- Occupied --
-10.1947 -10.1947 -10.1944 -10.1944 -10.1936 -10.1936 -10.1894 -10.1894
-10.1872 -10.1871 -10.1870 -10.1870 -10.1869 -10.1869 -10.1865 -10.1865
-10.1863 -10.1863 -10.1859 -10.1859 -10.1790 -10.1790  -0.8781  -0.8674
 -0.8519  -0.8087  -0.7910  -0.7624  -0.7546  -0.7494  -0.7442  -0.7309
 -0.7022  -0.6437  -0.6298  -0.6129  -0.6121  -0.5905  -0.5816  -0.5601
 -0.5590  -0.5330  -0.5102  -0.4888  -0.4787  -0.4715  -0.4631  -0.4491
 -0.4460  -0.4400  -0.4382  -0.4276  -0.4212  -0.4211  -0.4147  -0.4127
 -0.3947  -0.3858  -0.3753  -0.3729  -0.3621  -0.3569  -0.3521  -0.3443
 -0.3384  -0.3347  -0.3296  -0.3094  -0.2979  -0.2579  -0.2538  -0.2534
 -0.2534  -0.2241  -0.2031
 -- Virtual --
 -0.0486  -0.0277  -0.0025  -0.0004   0.0022   0.0145   0.0632   0.0785
  0.1025   0.1044   0.1096   0.1108   0.1135   0.1301   0.1338   0.1358
  0.1538   0.1562   0.1650   0.1772   0.1819   0.1902   0.1913   0.1955
  0.2062   0.2109   0.2152   0.2369   0.2436   0.2520   0.2557   0.2627
  0.2975   0.3047   0.3065   0.3135   0.3236   0.3284   0.3407   0.3547
  0.3583   0.3703   0.3745   0.3830   0.3902   0.4376   0.4394   0.4496
  0.4848   0.4993   0.5099   0.5125   0.5259   0.5260   0.5299   0.5370
  0.5471   0.5575   0.5576   0.5602   0.5610   0.5675   0.5705   0.5751
  0.5862   0.5922   0.5927   0.5954   0.5965   0.5988   0.5998   0.6033
  0.6041   0.6098   0.6126   0.6147   0.6244   0.6291   0.6315   0.6428
  0.6483   0.6528   0.6635   0.6783   0.6795   0.6890   0.6969   0.7035
  0.7039   0.7119   0.7221   0.7471   0.7496   0.7855   0.7983   0.8018
  0.8121   0.8163   0.8222   0.8307   0.8350   0.8422   0.8433   0.8591
  0.8606   0.8611   0.8818   0.8861   0.8864   0.8922   0.8932   0.8965
  0.9032   0.9305   0.9470   0.9532   0.9622   0.9724   0.9766   0.9773
  0.9867   0.9918   0.9920   1.0123   1.0148   1.0340   1.0359   1.0574
  1.0682   1.0824   1.0959   1.1080   1.1127   1.1155   1.1490   1.1646
  1.1703   1.1809   1.1834   1.1932   1.1987   1.2189   1.2278   1.2564
  1.2616   1.2950   1.2966   1.3093   1.3229   1.3239   1.3275   1.3439
  1.3994   1.4264   1.4318   1.4474   1.4549   1.4592   1.4636   1.4674
  1.4795   1.4802   1.4922   1.5064   1.5069   1.5098   1.5102   1.5151
  1.5191   1.5264   1.5299   1.5433   1.6443   1.6784   1.6791   1.7274
  1.7293   1.7861   1.7889   1.7903   1.8080   1.8150   1.8167   1.8282
  1.8345   1.8466   1.8610   1.8703   1.9156   1.9158   1.9200   1.9517
  1.9607   1.9818   1.9881   1.9934   2.0027   2.0064   2.0139   2.0407
  2.0516   2.0529   2.0676   2.0828   2.0994   2.1182   2.1208   2.1349
  2.1378   2.1463   2.1574   2.1656   2.1666   2.1777   2.1858   2.2266
  2.2473   2.2533   2.2546   2.2712   2.2743   2.3080   2.3207   2.3248
  2.3268   2.3333   2.3343   2.3486   2.3661   2.3903   2.3912   2.4041
  2.4390   2.5154   2.5218   2.5240   2.5630   2.5818   2.6018   2.6210
  2.6323   2.6339   2.6576   2.6593   2.6798   2.6816   2.6888   2.7041
  2.7319   2.7339   2.7545   2.7830   2.7972   2.8015   2.8173   2.8609
  2.9012   2.9202   2.9500   2.9607   2.9757   3.0363   3.0713   3.1421
  3.2189   3.2739   3.3932   3.4663   3.5267   4.0919   4.0926   4.1185
  4.1197   4.1239   4.1260   4.1306   4.1307   4.1477   4.1588   4.1759
  4.2476   4.2672   4.3343   4.3381   4.3533   4.3616   4.4551   4.5318
  4.6850   4.7650   4.8213
 --------------------------------------------------------------
 
          Ground-State Mulliken Net Atomic Charges

     Atom                 Charge (a.u.)
  ----------------------------------------
      1 C                    -0.353428
      2 C                    -0.114206
      3 C                     0.183447
      4 C                    -0.189711
      5 C                    -0.173422
      6 C                     0.088954
      7 C                     0.092705
      8 C                    -0.178578
      9 C                    -0.178594
     10 C                     0.092714
     11 C                     0.088954
     12 C                    -0.173423
     13 C                    -0.189703
     14 C                     0.183425
     15 C                    -0.114215
     16 C                    -0.353410
     17 C                    -0.204723
     18 C                    -0.171360
     19 C                    -0.178485
     20 C                    -0.178494
     21 C                    -0.171357
     22 C                    -0.204734
     23 H                     0.144190
     24 H                     0.142356
     25 H                     0.126320
     26 H                     0.127384
     27 H                     0.132537
     28 H                     0.132763
     29 H                     0.132772
     30 H                     0.132543
     31 H                     0.127386
     32 H                     0.126325
     33 H                     0.142356
     34 H                     0.144188
     35 H                     0.128150
     36 H                     0.132344
     37 H                     0.132761
     38 H                     0.132767
     39 H                     0.132351
     40 H                     0.128152
  ----------------------------------------
  Sum of atomic charges =     0.000000

 -----------------------------------------------------------------
                    Cartesian Multipole Moments
 -----------------------------------------------------------------
    Charge (ESU x 10^10)
                 0.0000
    Dipole Moment (Debye)
         X      -0.0003      Y       0.0561      Z      -0.0001
       Tot       0.0561
    Quadrupole Moments (Debye-Ang)
        XX    -116.5551     XY      -0.0005     YY    -119.9115
        XZ       0.7136     YZ       0.0015     ZZ    -128.4810
    Octopole Moments (Debye-Ang^2)
       XXX      -0.0166    XXY       1.2934    XYY       0.1033
       YYY       1.1111    XXZ       0.0083    XYZ      46.9128
       YYZ      -0.0058    XZZ      -0.1030    YZZ       0.4049
       ZZZ       0.0159
    Hexadecapole Moments (Debye-Ang^3)
      XXXX  -15632.9666   XXXY      -0.1176   XXYY   -2901.8954
      XYYY      -0.1274   YYYY    -707.6445   XXXZ      44.0199
      XXYZ      -0.0887   XYYZ      -7.6038   YYYZ       0.0199
      XXZZ   -2919.9670   XYZZ       0.1189   YYZZ    -173.8631
      XZZZ       3.5316   YZZZ      -0.0099   ZZZZ    -398.6090
 -----------------------------------------------------------------
Archival summary:
1\1\nia2015.scinet.local\SP\ProcedureUnspecified\6-31G*\2218\rhickman\TueFeb814:05:562022TueFeb814:05:562022\0\\#,ProcedureUnspecified,6-31G*,\\0,1\C\C,1,1.39378\H,2,1.0805,1,119.495\C,2,1.37969,1,120.847,3,178.711,0\H,4,1.0805,2,119.645,1,179.423,0\C,4,1.39379,2,120.849,1,0.707651,0\C,6,1.39379,4,118.3,2,-0.340342,0\H,7,1.0805,6,119.493,4,-179.077,0\C,7,1.37968,6,120.848,4,-0.361287,0\H,9,1.0805,7,119.647,6,179.427,0\C,6,1.46767,4,120.852,2,179.634,0\C,11,1.39372,6,120.912,4,-139.363,0\H,12,1.08053,11,119.538,6,1.18888,0\C,12,1.37885,11,120.712,6,179.758,0\H,14,1.08139,12,119.477,11,-179.5,0\C,11,1.39453,6,120.896,4,40.601,0\H,16,1.08062,11,119.368,6,1.25174,0\C,16,1.37855,11,121.039,6,179.868,0\H,18,1.07914,16,119.117,11,-179.584,0\C,18,1.39611,16,120.98,11,0.35897,0\C,20,1.45653,18,123.248,16,179.79,0\H,21,1.08378,20,114.363,18,-178.97,0\C,21,1.32802,20,126.879,18,1.12051,0\H,23,1.07643,21,122.883,20,0.0309197,0\H,23,1.07656,21,121.287,20,179.989,0\C,1,1.46767,2,120.859,3,0.889881,0\C,26,1.39373,1,120.902,2,-139.356,0\H,27,1.08052,26,119.537,1,1.2021,0\C,27,1.37884,26,120.713,1,179.781,0\H,29,1.08139,27,119.477,26,-179.506,0\C,26,1.39452,1,120.907,2,40.615,0\H,31,1.08063,26,119.369,1,1.24494,0\C,31,1.37856,26,121.038,1,179.853,0\H,33,1.07914,31,119.117,26,-179.556,0\C,33,1.39611,31,120.98,26,0.35922,0\C,35,1.45653,33,123.252,31,179.808,0\H,36,1.08376,35,114.361,33,-179.37,0\C,36,1.32805,35,126.882,33,0.676568,0\H,38,1.07642,36,122.884,35,0.0272081,0\H,38,1.07656,36,121.286,35,-179.995,0\\\@

 Total job time:  77.94s(wall), 77.72s(cpu) 
 Tue Feb  8 14:05:56 2022

        *************************************************************
        *                                                           *
        *  Thank you very much for using Q-Chem.  Have a nice day.  *
        *                                                           *
        *************************************************************


