
Running Job 1 of 1 fragments/C153/conf-0/spe_input.inp
qchem fragments/C153/conf-0/spe_input.inp_347917.0 /gpfs/fs0/scratch/a/aspuru/rhickman/descriptor_computation/qchem347917/ 0
/scinet/niagara/software/commercial/qc52/exe/qcprog.exe_s fragments/C153/conf-0/spe_input.inp_347917.0 /gpfs/fs0/scratch/a/aspuru/rhickman/descriptor_computation/qchem347917/
                  Welcome to Q-Chem
     A Quantum Leap Into The Future Of Chemistry


 Q-Chem 5.2, Q-Chem, Inc., Pleasanton, CA (2019)

 License issued to: SRG Alan Aspuru-Guzik, University of Toronto

 Yihan Shao,  Zhengting Gan,  E. Epifanovsky,  A. T. B. Gilbert,  M. Wormit,  
 J. Kussmann,  A. W. Lange,  A. Behn,  Jia Deng,  Xintian Feng,  D. Ghosh,  
 M. Goldey,  P. R. Horn,  L. D. Jacobson,  I. Kaliman,  T. Kus,  A. Landau,  
 Jie Liu,  E. I. Proynov,  R. M. Richard,  R. P. Steele,  E. J. Sundstrom,  
 H. L. Woodcock III,  P. M. Zimmerman,  D. Zuev,  B. Albrecht,  E. Alguire,  
 S. A. Baeppler,  D. Barton,  Z. Benda,  Y. A. Bernard,  E. J. Berquist,  
 K. B. Bravaya,  H. Burton,  D. Casanova,  Chun-Min Chang,  Yunqing Chen,  
 A. Chien,  K. D. Closser,  M. P. Coons,  S. Coriani,  S. Dasgupta,  
 A. L. Dempwolff,  M. Diedenhofen,  Hainam Do,  R. G. Edgar,  Po-Tung Fang,  
 S. Faraji,  S. Fatehi,  Qingguo Feng,  K. D. Fenk,  J. Fosso-Tande,  
 J. Gayvert,  Qinghui Ge,  A. Ghysels,  G. Gidofalvi,  J. Gomes,  
 J. Gonthier,  A. Gunina,  D. Hait,  M. W. D. Hanson-Heine,  
 P. H. P. Harbach,  A. W. Hauser,  M. F. Herbst,  J. E. Herr,  
 E. G. Hohenstein,  Z. C. Holden,  Kerwin Hui,  B. C. Huynh,  T.-C. Jagau,  
 Hyunjun Ji,  B. Kaduk,  K. Khistyaev,  Jaehoon Kim,  P. Klunzinger,  K. Koh,  
 D. Kosenkov,  L. Koulias,  T. Kowalczyk,  C. M. Krauter,  A. Kunitsa,  
 Ka Un Lao,  A. Laurent,  K. V. Lawler,  Joonho Lee,  D. Lefrancois,  
 S. Lehtola,  D. S. Levine,  Yi-Pei Li,  You-Sheng Lin,  Fenglai Liu,  
 E. Livshits,  A. Luenser,  P. Manohar,  E. Mansoor,  S. F. Manzer,  
 Shan-Ping Mao,  Yuezhi Mao,  N. Mardirossian,  A. V. Marenich,  
 T. Markovich,  L. A. Martinez-Martinez,  S. A. Maurer,  N. J. Mayhall,  
 S. C. McKenzie,  J.-M. Mewes,  P. Morgante,  A. F. Morrison,  
 J. W. Mullinax,  K. Nanda,  T. S. Nguyen-Beck,  R. Olivares-Amaya,  
 J. A. Parkhill,  Zheng Pei,  T. M. Perrine,  F. Plasser,  P. Pokhilko,  
 S. Prager,  A. Prociuk,  E. Ramos,  D. R. Rehn,  F. Rob,  M. Scheurer,  
 M. Schneider,  N. Sergueev,  S. M. Sharada,  S. Sharma,  D. W. Small,  
 T. Stauch,  T. Stein,  Yu-Chuan Su,  A. J. W. Thom,  A. Tkatchenko,  
 T. Tsuchimochi,  N. M. Tubman,  L. Vogt,  M. L. Vidal,  O. Vydrov,  
 M. A. Watson,  J. Wenzel,  M. de Wergifosse,  T. A. Wesolowski,  A. White,  
 J. Witte,  A. Yamada,  Jun Yang,  K. Yao,  S. Yeganeh,  S. R. Yost,  
 Zhi-Qiang You,  A. Zech,  Igor Ying Zhang,  Xing Zhang,  Yan Zhao,  
 Ying Zhu,  B. R. Brooks,  G. K. L. Chan,  C. J. Cramer,  M. S. Gordon,  
 W. J. Hehre,  A. Klamt,  M. W. Schmidt,  C. D. Sherrill,  D. G. Truhlar,  
 A. Aspuru-Guzik,  R. Baer,  A. T. Bell,  N. A. Besley,  Jeng-Da Chai,  
 A. E. DePrince, III,  R. A. DiStasio Jr.,  A. Dreuw,  B. D. Dunietz,  
 T. R. Furlani,  Chao-Ping Hsu,  Yousung Jung,  Jing Kong,  D. S. Lambrecht,  
 WanZhen Liang,  C. Ochsenfeld,  V. A. Rassolov,  L. V. Slipchenko,  
 J. E. Subotnik,  T. Van Voorhis,  J. M. Herbert,  A. I. Krylov,  
 P. M. W. Gill,  M. Head-Gordon

 Contributors to earlier versions of Q-Chem not listed above: 
 R. D. Adamson,  B. Austin,  J. Baker,  G. J. O. Beran,  K. Brandhorst,  
 S. T. Brown,  E. F. C. Byrd,  A. K. Chakraborty,  C.-L. Cheng,  
 Siu Hung Chien,  D. M. Chipman,  D. L. Crittenden,  H. Dachsel,  
 R. J. Doerksen,  A. D. Dutoi,  L. Fusti-Molnar,  W. A. Goddard III,  
 A. Golubeva-Zadorozhnaya,  S. R. Gwaltney,  G. Hawkins,  A. Heyden,  
 S. Hirata,  G. Kedziora,  F. J. Keil,  C. Kelley,  Jihan Kim,  R. A. King,  
 R. Z. Khaliullin,  P. P. Korambath,  W. Kurlancheek,  A. M. Lee,  M. S. Lee,  
 S. V. Levchenko,  Ching Yeh Lin,  D. Liotard,  R. C. Lochan,  I. Lotan,  
 P. E. Maslen,  N. Nair,  D. P. O'Neill,  D. Neuhauser,  E. Neuscamman,  
 C. M. Oana,  R. Olson,  B. Peters,  R. Peverati,  P. A. Pieniazek,  
 Y. M. Rhee,  J. Ritchie,  M. A. Rohrdanz,  E. Rosta,  N. J. Russ,  
 H. F. Schaefer III,  N. E. Schultz,  N. Shenvi,  A. C. Simmonett,  A. Sodt,  
 D. Stuck,  K. S. Thanthiriwatte,  V. Vanovschi,  Tao Wang,  A. Warshel,  
 C. F. Williams,  Q. Wu,  X. Xu,  W. Zhang

 Please cite Q-Chem as follows:
 Y. Shao et al., Mol. Phys. 113, 184-215 (2015)
 DOI: 10.1080/00268976.2014.952696

 Q-Chem 5.2.1 for Intel X86 EM64T Linux

 Parts of Q-Chem use Armadillo 8.300.2 (Tropical Shenanigans).
 http://arma.sourceforge.net/

 Q-Chem begins on Tue Feb  8 15:59:20 2022  

Host: 
0

     Scratch files written to /gpfs/fs0/scratch/a/aspuru/rhickman/descriptor_computation/qchem347917//
 Jul1719 |scratch|qcdevops|jenkins|workspace|build_RNUM -1
Processing $rem in /scinet/niagara/software/commercial/qc52/config/preferences:
	 MEM_TOTAL  4000 
NAlpha2: 148
NElect   148
Mult     1

Checking the input file for inconsistencies... 	...done.

--------------------------------------------------------------
User input:
--------------------------------------------------------------
$molecule
0 1
C         2.63202933570000    1.32335165780000   -2.72900913650000
C         2.02284493440000    1.99867223690000   -1.76265359660000
C         0.73670927950000    1.67217620550000   -1.15169157130000
C         0.32803060450000    2.38322554160000   -0.02083948370000
C        -0.88759844010000    2.11803366860000    0.60320157840000
C        -1.26815501810000    2.91602489670000    1.76428378490000
C        -2.46289282830000    2.95656005220000    2.34044650450000
C        -1.69472046700000    1.09291266420000    0.10832281590000
C        -1.29358188370000    0.35757862350000   -0.99957935130000
O        -1.98739818110000   -0.67396238440000   -1.55322418920000
C        -3.04465821910000   -1.28213237980000   -0.84050111400000
C        -2.62003394900000   -2.02036030050000    0.43390457250000
C        -1.70582482140000   -3.22367312480000    0.18996254600000
C        -0.30353712170000   -2.88170957480000   -0.31959213360000
C         0.52880176550000   -2.08809751560000    0.68639085560000
C         1.92377713250000   -1.77488588460000    0.13093252230000
C         2.72492781750000   -1.00200467800000    1.15970904410000
O         3.58692393230000   -1.48477283150000    1.83598758220000
O         2.38357709870000    0.28893896810000    1.30134712510000
C        -0.09055310620000    0.66394814130000   -1.63503202910000
H         3.58703915980000    1.63730019650000   -3.11250417620000
H         2.21430096040000    0.43842311140000   -3.17854634810000
H         2.50579444080000    2.87432273300000   -1.34810036970000
H         0.96245392610000    3.16590771040000    0.36898740130000
H        -0.47440879930000    3.53819166250000    2.15808020480000
H        -3.30339317140000    2.38243789060000    1.98901466380000
H        -2.65021278800000    3.58522629510000    3.19362064920000
H        -2.63156734680000    0.88121821000000    0.59563994950000
H        -3.46601962870000   -1.99494752890000   -1.55489371140000
H        -3.81942367720000   -0.54167900460000   -0.59986257530000
H        -3.53563710450000   -2.37343451250000    0.91370972920000
H        -2.13643274600000   -1.32666345800000    1.12188055510000
H        -2.18591101690000   -3.88548562620000   -0.53466586100000
H        -1.61257257420000   -3.77412184170000    1.12941724480000
H        -0.38198370750000   -2.32298759080000   -1.25175923670000
H         0.21562669140000   -3.81755835780000   -0.53914930620000
H         0.63347372920000   -2.66365886210000    1.60888960790000
H         0.02530410660000   -1.15034998780000    0.93265872040000
H         1.83415944460000   -1.18892838660000   -0.78704699620000
H         2.45156891520000   -2.70341435200000   -0.08799930820000
H         1.69145105560000    0.57447592760000    0.68238130630000
H         0.16983478670000    0.09827811110000   -2.51474206030000
$end

$rem
BASIS = 6-31G*
GUI = 2
METHOD = B3LYP
PRINT_ORBITALS false
MOLDEN_FORMAT false
--------------------------------------------------------------
 ----------------------------------------------------------------
             Standard Nuclear Orientation (Angstroms)
    I     Atom           X                Y                Z
 ----------------------------------------------------------------
    1      C       3.0033727781     0.7255152762    -2.6110066939
    2      C       2.4888934016     1.5374452960    -1.6960820179
    3      C       1.1360300956     1.4827680658    -1.1476383533
    4      C       0.8169978515     2.2973536660    -0.0585540641
    5      C      -0.4556348097     2.2898781689     0.5052350607
    6      C      -0.7319015885     3.1854715904     1.6238566634
    7      C      -1.9231600870     3.4723292318     2.1333867378
    8      C      -1.4193461510     1.4203051975    -0.0069439389
    9      C      -1.1134677806     0.5841223529    -1.0729233943
   10      O      -1.9644975621    -0.3153258242    -1.6374779089
   11      C      -3.1518890608    -0.6863393152    -0.9680795736
   12      C      -2.9386875204    -1.4471247657     0.3453688224
   13      C      -2.2612844765    -2.8099958910     0.1811884144
   14      C      -0.7964972412    -2.7586994415    -0.2601310429
   15      C       0.1228705618    -2.1033232079     0.7693614211
   16      C       1.5771991446    -2.0804405486     0.2825385399
   17      C       2.4609198204    -1.4386852821     1.3336126840
   18      O       3.1807267327    -2.0527201834     2.0672980402
   19      O       2.3668141966    -0.1022698602     1.4244703116
   20      C       0.1552547576     0.6339983573    -1.6498082457
   21      H       4.0182415605     0.8387153044    -2.9499801483
   22      H       2.4460472265    -0.0789454258    -3.0603511507
   23      H       3.1100670388     2.3191916767    -1.2779022674
   24      H       1.5700395623     2.9582344232     0.3454436281
   25      H       0.1463727375     3.6587167585     2.0444198380
   26      H      -2.8401082756     3.0565806076     1.7513912890
   27      H      -2.0275632391     4.1543707853     2.9593016453
   28      H      -2.4018351815     1.4075843038     0.4341094485
   29      H      -3.6669957715    -1.3304336502    -1.6862823456
   30      H      -3.7811277350     0.1957754107    -0.7881575805
   31      H      -3.9270786459    -1.6028599064     0.7835846083
   32      H      -2.3649548648    -0.8345355043     1.0410423249
   33      H      -2.8236905035    -3.3932420999    -0.5516745953
   34      H      -2.3207503838    -3.3351840028     1.1376956834
   35      H      -0.7212846211    -2.2279551032    -1.2087685603
   36      H      -0.4562786780    -3.7832133145    -0.4279762538
   37      H       0.0706068461    -2.6559099126     1.7101841831
   38      H      -0.2029179788    -1.0789968030     0.9646699531
   39      H       1.6459938578    -1.5203580927    -0.6532172219
   40      H       1.9272479652    -3.0993902660     0.1156022539
   41      H       1.7729656662     0.2879525893     0.7620815568
   42      H       0.3446383065    -0.0010433399    -2.4998259461
 ----------------------------------------------------------------
 Molecular Point Group                 C1    NOp =  1
 Largest Abelian Subgroup              C1    NOp =  1
 Nuclear Repulsion Energy =        1611.47939787 hartrees
 There are       74 alpha and       74 beta electrons
 Requested basis set is 6-31G(d)
 There are 124 shells and 344 basis functions

 Total QAlloc Memory Limit   4000 MB
 Mega-Array Size       188 MB
 MEM_STATIC part       192 MB
 A cutoff of  1.0D-08 yielded   4579 shell pairs
 There are     36702 function pairs
 Smallest overlap matrix eigenvalue = 3.55E-04

 Scale SEOQF with 1.000000e-01/1.000000e-01/1.000000e-01

 Standard Electronic Orientation quadrupole field applied
 Nucleus-field energy     =     0.0000000332 hartrees
 Guess from superposition of atomic densities
 Warning:  Energy on first SCF cycle will be non-variational
 SAD guess density has 148.000000 electrons

 -----------------------------------------------------------------------
  General SCF calculation program by
  Eric Jon Sundstrom, Paul Horn, Yuezhi Mao, Dmitri Zuev, Alec White,
  David Stuck, Shaama M.S., Shane Yost, Joonho Lee, David Small,
  Daniel Levine, Susi Lehtola, Hugh Burton, Evgeny Epifanovsky,
  Bang C. Huynh
 -----------------------------------------------------------------------
 Exchange:     0.2000 Hartree-Fock + 0.0800 Slater + 0.7200 B88
 Correlation:  0.1900 VWN1RPA + 0.8100 LYP
 Using SG-1 standard quadrature grid
 A restricted SCF calculation will be
 performed using DIIS
 SCF converges when DIIS error is below 1.0e-05
 ---------------------------------------
  Cycle       Energy         DIIS error
 ---------------------------------------
    1    -891.0204076717      4.35e-02  
    2    -886.3199250781      5.12e-03  
    3    -886.1191949505      6.76e-03  
    4    -886.6532658755      1.80e-03  
    5    -886.6906015518      3.75e-04  
    6    -886.6919031943      1.64e-04  
    7    -886.6922182924      4.05e-05  
    8    -886.6922363489      1.55e-05  
    9    -886.6922398189      5.06e-06  Convergence criterion met
 ---------------------------------------
 SCF time:   CPU 108.00s  wall 108.00s 
 SCF   energy in the final basis set =     -886.6922398189
 Total energy in the final basis set =     -886.6922398189
 
 --------------------------------------------------------------
 
                    Orbital Energies (a.u.)
 --------------------------------------------------------------
 
 Alpha MOs
 -- Occupied --
-19.1890 -19.1715 -19.1106 -10.2963 -10.2640 -10.2517 -10.2146 -10.2142
-10.2030 -10.2017 -10.2010 -10.1983 -10.1982 -10.1939 -10.1933 -10.1924
-10.1882 -10.1874 -10.1869 -10.1793  -1.0827  -1.0814  -0.9995  -0.8839
 -0.8221  -0.8202  -0.7994  -0.7794  -0.7538  -0.7384  -0.7254  -0.6759
 -0.6546  -0.6359  -0.6115  -0.6011  -0.5906  -0.5701  -0.5568  -0.5343
 -0.5110  -0.5068  -0.5003  -0.4903  -0.4789  -0.4705  -0.4633  -0.4562
 -0.4422  -0.4397  -0.4321  -0.4285  -0.4209  -0.4105  -0.3972  -0.3922
 -0.3908  -0.3807  -0.3759  -0.3726  -0.3676  -0.3609  -0.3501  -0.3478
 -0.3424  -0.3309  -0.3261  -0.3257  -0.3167  -0.2941  -0.2727  -0.2486
 -0.2366  -0.2317
 -- Virtual --
 -0.0578  -0.0256   0.0241   0.0344   0.0716   0.0753   0.0881   0.0893
  0.0987   0.1011   0.1157   0.1191   0.1223   0.1251   0.1407   0.1444
  0.1545   0.1589   0.1617   0.1667   0.1790   0.1826   0.1832   0.1932
  0.1956   0.1988   0.2027   0.2129   0.2236   0.2326   0.2415   0.2452
  0.2536   0.2667   0.2753   0.2812   0.2894   0.3037   0.3119   0.3272
  0.3651   0.3654   0.3780   0.3881   0.3972   0.4158   0.4343   0.4682
  0.4926   0.5048   0.5094   0.5159   0.5200   0.5277   0.5295   0.5363
  0.5399   0.5477   0.5559   0.5609   0.5724   0.5828   0.5880   0.6003
  0.6030   0.6101   0.6105   0.6206   0.6294   0.6334   0.6471   0.6527
  0.6618   0.6697   0.6732   0.6824   0.6868   0.6961   0.7089   0.7236
  0.7308   0.7438   0.7619   0.7791   0.7939   0.7960   0.8082   0.8194
  0.8235   0.8303   0.8380   0.8458   0.8477   0.8633   0.8670   0.8691
  0.8734   0.8810   0.8845   0.8923   0.9019   0.9136   0.9239   0.9288
  0.9374   0.9511   0.9532   0.9583   0.9700   0.9741   0.9786   0.9872
  0.9951   1.0003   1.0021   1.0183   1.0333   1.0448   1.0529   1.0691
  1.0746   1.0849   1.0953   1.1143   1.1206   1.1396   1.1510   1.1689
  1.1976   1.2103   1.2152   1.2377   1.2515   1.2614   1.2881   1.2904
  1.3033   1.3104   1.3304   1.3527   1.3675   1.3925   1.4074   1.4203
  1.4419   1.4496   1.4516   1.4650   1.4873   1.4955   1.5032   1.5182
  1.5315   1.5522   1.5712   1.5941   1.6147   1.6387   1.6540   1.6673
  1.6763   1.6834   1.7147   1.7470   1.7576   1.7598   1.7726   1.7908
  1.8000   1.8154   1.8290   1.8339   1.8494   1.8576   1.8621   1.8769
  1.8872   1.9095   1.9162   1.9358   1.9430   1.9498   1.9556   1.9637
  1.9680   1.9824   1.9898   1.9927   2.0012   2.0069   2.0225   2.0459
  2.0706   2.0802   2.1072   2.1084   2.1108   2.1222   2.1329   2.1591
  2.1836   2.2102   2.2148   2.2487   2.2538   2.2607   2.2710   2.2911
  2.3052   2.3207   2.3348   2.3517   2.3697   2.3853   2.3993   2.4229
  2.4425   2.4559   2.4648   2.4706   2.4837   2.5087   2.5383   2.5539
  2.5705   2.5932   2.6022   2.6202   2.6421   2.6637   2.6686   2.6842
  2.6944   2.7055   2.7206   2.7474   2.7636   2.7865   2.8205   2.8451
  2.8645   2.8932   2.9635   3.0018   3.0109   3.0770   3.0996   3.1227
  3.2662   3.4599   3.9737   4.0839   4.0928   4.1103   4.1275   4.1606
  4.1790   4.2156   4.2396   4.2505   4.2947   4.3458   4.4007   4.4167
  4.4885   4.4955   4.5298   4.5618   4.6426   4.8208
 --------------------------------------------------------------
 
          Ground-State Mulliken Net Atomic Charges

     Atom                 Charge (a.u.)
  ----------------------------------------
      1 C                    -0.345858
      2 C                    -0.104362
      3 C                     0.126595
      4 C                    -0.315546
      5 C                     0.194572
      6 C                    -0.108921
      7 C                    -0.349998
      8 C                    -0.259640
      9 C                     0.404859
     10 O                    -0.524058
     11 C                    -0.042984
     12 C                    -0.299962
     13 C                    -0.258960
     14 C                    -0.262885
     15 C                    -0.278466
     16 C                    -0.374378
     17 C                     0.579836
     18 O                    -0.447204
     19 O                    -0.592541
     20 C                    -0.249562
     21 H                     0.155640
     22 H                     0.148491
     23 H                     0.140331
     24 H                     0.141084
     25 H                     0.139072
     26 H                     0.143942
     27 H                     0.152514
     28 H                     0.139475
     29 H                     0.156219
     30 H                     0.140484
     31 H                     0.142092
     32 H                     0.158747
     33 H                     0.130800
     34 H                     0.137481
     35 H                     0.156491
     36 H                     0.132822
     37 H                     0.152899
     38 H                     0.141730
     39 H                     0.150588
     40 H                     0.166242
     41 H                     0.438327
     42 H                     0.143990
  ----------------------------------------
  Sum of atomic charges =     0.000000

 -----------------------------------------------------------------
                    Cartesian Multipole Moments
 -----------------------------------------------------------------
    Charge (ESU x 10^10)
                 0.0000
    Dipole Moment (Debye)
         X      -4.5654      Y       1.5077      Z      -2.5411
       Tot       5.4381
    Quadrupole Moments (Debye-Ang)
        XX    -121.4210     XY      10.1940     YY    -117.6091
        XZ     -15.9493     YZ       9.6531     ZZ    -126.5534
    Octopole Moments (Debye-Ang^2)
       XXX     -60.7225    XXY      28.2638    XYY      -8.1844
       YYY      -6.2465    XXZ     -46.3881    XYZ      14.4033
       YYZ      10.4089    XZZ     -16.3042    YZZ       8.3852
       ZZZ      -7.4469
    Hexadecapole Moments (Debye-Ang^3)
      XXXX   -3039.9757   XXXY     114.2595   XXYY   -1014.8457
      XYYY      45.1654   YYYY   -2921.1232   XXXZ    -122.7892
      XXYZ      79.7353   XYYZ     -38.5660   YYYZ      85.9440
      XXZZ    -804.8570   XYZZ      25.3773   YYZZ    -722.9329
      XZZZ     -37.5367   YZZZ      58.5481   ZZZZ   -1478.9060
 -----------------------------------------------------------------
Archival summary:
1\1\nia2015.scinet.local\SP\ProcedureUnspecified\6-31G*\31722\rhickman\TueFeb816:01:092022TueFeb816:01:092022\0\\#,ProcedureUnspecified,6-31G*,\\0,1\O\C,1,1.36087\C,2,1.38891,1,125.351\H,3,1.07702,2,120.536,1,-1.1723,0\C,2,1.39461,1,114.894,3,-179.836,0\H,5,1.07781,2,117.711,1,2.22202,0\C,5,1.39086,2,120.929,1,-178.225,0\C,3,1.39543,2,120.316,1,178.907,0\C,8,1.39194,3,119.085,2,-0.605103,0\H,9,1.0803,8,119.284,3,-179.055,0\C,1,1.41267,2,120.174,3,-14.8724,0\H,11,1.09362,1,103.85,2,174.811,0\H,11,1.09838,1,110.378,2,59.1528,0\C,8,1.45936,3,122.21,2,-179.976,0\H,14,1.08268,8,114.358,3,168.516,0\C,14,1.32703,8,126.649,3,-12.5937,0\H,16,1.0762,14,121.248,8,-179.547,0\H,16,1.07683,14,123.007,8,-0.244176,0\C,7,1.46083,5,122.706,2,178.129,0\H,19,1.08252,7,114.419,5,173.608,0\C,19,1.32703,7,126.511,5,-7.57673,0\H,21,1.07595,19,121.233,7,-179.495,0\H,21,1.07688,19,122.963,7,0.550403,0\C,11,1.53277,1,114.802,2,-65.5131,0\H,24,1.09014,11,109.946,1,59.689,0\H,24,1.09234,11,106.779,1,175.991,0\C,24,1.53077,11,114.302,1,-64.0831,0\H,27,1.0925,24,108.63,11,-53.5652,0\H,27,1.09282,24,108.054,11,-170.034,0\C,27,1.53068,24,115.123,11,68.2842,0\H,30,1.08961,27,109.475,24,-58.083,0\H,30,1.0925,27,108.112,24,-174.966,0\C,30,1.52794,27,113.323,24,64.6501,0\H,33,1.09235,30,109.545,27,59.1693,0\H,33,1.09249,30,110.071,27,-59.2218,0\C,33,1.53382,30,111.289,27,179.827,0\H,36,1.09026,33,109.821,30,-60.3254,0\H,36,1.09273,33,109.824,30,59.6889,0\C,36,1.51577,33,109.818,30,-179.367,0\O,39,1.19727,36,123.939,33,103.229,0\O,39,1.3428,36,115.305,33,-75.149,0\H,41,0.971436,39,113.359,36,-3.23799,0\\\@

 Total job time:  109.02s(wall), 108.34s(cpu) 
 Tue Feb  8 16:01:09 2022

        *************************************************************
        *                                                           *
        *  Thank you very much for using Q-Chem.  Have a nice day.  *
        *                                                           *
        *************************************************************


