26
 energy: -41.233963459975 gnorm: 0.000033630358 xtb: 6.5.0 (unknown)
C           -4.32147572700000       -0.76135998680000        0.75506106560000
C           -3.67022807320000        0.16074907660000        0.05878285820000
C           -2.21832837900000        0.21596508410000       -0.10023707680000
C           -1.46775496970000       -0.95503293350000       -0.12371032440000
C           -0.08862954760000       -0.96445753900000       -0.26849384610000
C            0.63065463420000       -2.27666168250000       -0.33084580690000
C            0.56872382910000        0.26347039910000       -0.39257053610000
C            2.01891630270000        0.40228802730000       -0.54402907630000
C            2.95239758720000       -0.19633126410000        0.17377723790000
F            2.77877652070000       -1.03887057540000        1.18529889080000
F            4.26035540270000       -0.00292152370000       -0.00732699570000
C           -0.18334505750000        1.43828849300000       -0.41054657310000
C           -1.55708201190000        1.44338980010000       -0.26086126220000
C           -2.30639368280000        2.74201647460000       -0.25568407420000
H           -5.39522764890000       -0.75504484870000        0.83443037340000
H           -3.81036221430000       -1.54532392990000        1.28832260720000
H           -4.22946292210000        0.94876577410000       -0.42774026680000
H           -1.98381083550000       -1.90094736990000       -0.04895686350000
H           -0.03465626610000       -3.05188096070000       -0.70413018850000
H            0.96985092420000       -2.57402275430000        0.66088953110000
H            1.50070645310000       -2.21868546210000       -0.98162370220000
H            2.37053635540000        1.11288938330000       -1.27855557030000
H            0.33630325070000        2.37936021210000       -0.52694688740000
H           -1.61616595830000        3.58080761960000       -0.29850217460000
H           -2.91007357830000        2.83447836160000        0.64573719400000
H           -2.97284818700000        2.80470474580000       -1.11609336220000
