44
 energy: -69.181441386406 gnorm: 0.000086258017 xtb: 6.4.1 (23d549d)
C         4.65124740060000   -4.38727550990000   -0.16471918250000
C         3.67978754950000   -3.24791746430000   -0.10766112010000
C         2.47572324830000   -3.28932422220000   -0.79819034410000
C         1.58943770540000   -2.23052356180000   -0.75380704680000
C         1.88578217080000   -1.09707638290000   -0.00062921230000
N         0.99329363150000   -0.01560775810000    0.04978887510000
C        -0.37612218790000   -0.23413913240000    0.11761037040000
C        -0.89123823810000   -1.35441113600000    0.77721320010000
C        -2.24937263880000   -1.56407605980000    0.84053785270000
C        -3.15301632340000   -0.67084735420000    0.25609436620000
C        -4.57064387210000   -0.95514398060000    0.36641132500000
C        -5.59532637440000   -0.24906593530000   -0.09066196180000
F        -5.56908257090000    0.89692864210000   -0.76538750490000
F        -6.86734526970000   -0.61842256350000    0.07773255390000
C        -2.63349790690000    0.44754837230000   -0.40241832060000
C        -1.27526951500000    0.66042713690000   -0.47131432430000
C         1.50581490680000    1.29065389490000    0.02832915300000
C         2.59421694890000    1.60854847930000   -0.78022681050000
C         3.10562164780000    2.89174587250000   -0.78786257950000
C         2.54821135550000    3.89205760690000   -0.00205112270000
C         3.08616687310000    5.29024449960000   -0.02561207200000
C         1.46076880820000    3.56773576560000    0.80204715920000
C         0.94611735780000    2.28768785060000    0.82574483750000
C         3.09258223330000   -1.04879043880000    0.69551142630000
C         3.97307053530000   -2.10931671100000    0.63557165650000
H         4.20587746760000   -5.25509888540000   -0.64440302200000
H         4.97334952060000   -4.66672616970000    0.83709702070000
H         5.53766356510000   -4.09904003730000   -0.73003289190000
H         2.22827521790000   -4.15992201230000   -1.38865900460000
H         0.66223530790000   -2.27514805580000   -1.30630594820000
H        -0.21396475400000   -2.05227653780000    1.24669959400000
H        -2.62573442910000   -2.43237561220000    1.36174628110000
H        -4.84037990460000   -1.86054971290000    0.89134766840000
H        -3.29410009960000    1.15531078570000   -0.87549462610000
H        -0.89428588980000    1.52456028090000   -0.99489996830000
H         3.03604405800000    0.84364129380000   -1.40194988520000
H         3.94983701200000    3.11979244080000   -1.42272299100000
H         4.07553031210000    5.31923072530000   -0.47518997400000
H         3.14465694410000    5.69746103280000    0.98200096400000
H         2.42759385180000    5.93562388950000   -0.60772172070000
H         1.01667055390000    4.32923574560000    1.42706487760000
H         0.10907646650000    2.04986765770000    1.46583572760000
H         3.33178562650000   -0.17490913270000    1.28367789530000
H         4.90354700250000   -2.05805057930000    1.18274629370000
