
Running Job 1 of 1 fragments/C132/conf-3/spe_input.inp
qchem fragments/C132/conf-3/spe_input.inp_245287.0 /gpfs/fs0/scratch/a/aspuru/rhickman/descriptor_computation/qchem245287/ 0
/scinet/niagara/software/commercial/qc52/exe/qcprog.exe_s fragments/C132/conf-3/spe_input.inp_245287.0 /gpfs/fs0/scratch/a/aspuru/rhickman/descriptor_computation/qchem245287/
                  Welcome to Q-Chem
     A Quantum Leap Into The Future Of Chemistry


 Q-Chem 5.2, Q-Chem, Inc., Pleasanton, CA (2019)

 License issued to: SRG Alan Aspuru-Guzik, University of Toronto

 Yihan Shao,  Zhengting Gan,  E. Epifanovsky,  A. T. B. Gilbert,  M. Wormit,  
 J. Kussmann,  A. W. Lange,  A. Behn,  Jia Deng,  Xintian Feng,  D. Ghosh,  
 M. Goldey,  P. R. Horn,  L. D. Jacobson,  I. Kaliman,  T. Kus,  A. Landau,  
 Jie Liu,  E. I. Proynov,  R. M. Richard,  R. P. Steele,  E. J. Sundstrom,  
 H. L. Woodcock III,  P. M. Zimmerman,  D. Zuev,  B. Albrecht,  E. Alguire,  
 S. A. Baeppler,  D. Barton,  Z. Benda,  Y. A. Bernard,  E. J. Berquist,  
 K. B. Bravaya,  H. Burton,  D. Casanova,  Chun-Min Chang,  Yunqing Chen,  
 A. Chien,  K. D. Closser,  M. P. Coons,  S. Coriani,  S. Dasgupta,  
 A. L. Dempwolff,  M. Diedenhofen,  Hainam Do,  R. G. Edgar,  Po-Tung Fang,  
 S. Faraji,  S. Fatehi,  Qingguo Feng,  K. D. Fenk,  J. Fosso-Tande,  
 J. Gayvert,  Qinghui Ge,  A. Ghysels,  G. Gidofalvi,  J. Gomes,  
 J. Gonthier,  A. Gunina,  D. Hait,  M. W. D. Hanson-Heine,  
 P. H. P. Harbach,  A. W. Hauser,  M. F. Herbst,  J. E. Herr,  
 E. G. Hohenstein,  Z. C. Holden,  Kerwin Hui,  B. C. Huynh,  T.-C. Jagau,  
 Hyunjun Ji,  B. Kaduk,  K. Khistyaev,  Jaehoon Kim,  P. Klunzinger,  K. Koh,  
 D. Kosenkov,  L. Koulias,  T. Kowalczyk,  C. M. Krauter,  A. Kunitsa,  
 Ka Un Lao,  A. Laurent,  K. V. Lawler,  Joonho Lee,  D. Lefrancois,  
 S. Lehtola,  D. S. Levine,  Yi-Pei Li,  You-Sheng Lin,  Fenglai Liu,  
 E. Livshits,  A. Luenser,  P. Manohar,  E. Mansoor,  S. F. Manzer,  
 Shan-Ping Mao,  Yuezhi Mao,  N. Mardirossian,  A. V. Marenich,  
 T. Markovich,  L. A. Martinez-Martinez,  S. A. Maurer,  N. J. Mayhall,  
 S. C. McKenzie,  J.-M. Mewes,  P. Morgante,  A. F. Morrison,  
 J. W. Mullinax,  K. Nanda,  T. S. Nguyen-Beck,  R. Olivares-Amaya,  
 J. A. Parkhill,  Zheng Pei,  T. M. Perrine,  F. Plasser,  P. Pokhilko,  
 S. Prager,  A. Prociuk,  E. Ramos,  D. R. Rehn,  F. Rob,  M. Scheurer,  
 M. Schneider,  N. Sergueev,  S. M. Sharada,  S. Sharma,  D. W. Small,  
 T. Stauch,  T. Stein,  Yu-Chuan Su,  A. J. W. Thom,  A. Tkatchenko,  
 T. Tsuchimochi,  N. M. Tubman,  L. Vogt,  M. L. Vidal,  O. Vydrov,  
 M. A. Watson,  J. Wenzel,  M. de Wergifosse,  T. A. Wesolowski,  A. White,  
 J. Witte,  A. Yamada,  Jun Yang,  K. Yao,  S. Yeganeh,  S. R. Yost,  
 Zhi-Qiang You,  A. Zech,  Igor Ying Zhang,  Xing Zhang,  Yan Zhao,  
 Ying Zhu,  B. R. Brooks,  G. K. L. Chan,  C. J. Cramer,  M. S. Gordon,  
 W. J. Hehre,  A. Klamt,  M. W. Schmidt,  C. D. Sherrill,  D. G. Truhlar,  
 A. Aspuru-Guzik,  R. Baer,  A. T. Bell,  N. A. Besley,  Jeng-Da Chai,  
 A. E. DePrince, III,  R. A. DiStasio Jr.,  A. Dreuw,  B. D. Dunietz,  
 T. R. Furlani,  Chao-Ping Hsu,  Yousung Jung,  Jing Kong,  D. S. Lambrecht,  
 WanZhen Liang,  C. Ochsenfeld,  V. A. Rassolov,  L. V. Slipchenko,  
 J. E. Subotnik,  T. Van Voorhis,  J. M. Herbert,  A. I. Krylov,  
 P. M. W. Gill,  M. Head-Gordon

 Contributors to earlier versions of Q-Chem not listed above: 
 R. D. Adamson,  B. Austin,  J. Baker,  G. J. O. Beran,  K. Brandhorst,  
 S. T. Brown,  E. F. C. Byrd,  A. K. Chakraborty,  C.-L. Cheng,  
 Siu Hung Chien,  D. M. Chipman,  D. L. Crittenden,  H. Dachsel,  
 R. J. Doerksen,  A. D. Dutoi,  L. Fusti-Molnar,  W. A. Goddard III,  
 A. Golubeva-Zadorozhnaya,  S. R. Gwaltney,  G. Hawkins,  A. Heyden,  
 S. Hirata,  G. Kedziora,  F. J. Keil,  C. Kelley,  Jihan Kim,  R. A. King,  
 R. Z. Khaliullin,  P. P. Korambath,  W. Kurlancheek,  A. M. Lee,  M. S. Lee,  
 S. V. Levchenko,  Ching Yeh Lin,  D. Liotard,  R. C. Lochan,  I. Lotan,  
 P. E. Maslen,  N. Nair,  D. P. O'Neill,  D. Neuhauser,  E. Neuscamman,  
 C. M. Oana,  R. Olson,  B. Peters,  R. Peverati,  P. A. Pieniazek,  
 Y. M. Rhee,  J. Ritchie,  M. A. Rohrdanz,  E. Rosta,  N. J. Russ,  
 H. F. Schaefer III,  N. E. Schultz,  N. Shenvi,  A. C. Simmonett,  A. Sodt,  
 D. Stuck,  K. S. Thanthiriwatte,  V. Vanovschi,  Tao Wang,  A. Warshel,  
 C. F. Williams,  Q. Wu,  X. Xu,  W. Zhang

 Please cite Q-Chem as follows:
 Y. Shao et al., Mol. Phys. 113, 184-215 (2015)
 DOI: 10.1080/00268976.2014.952696

 Q-Chem 5.2.1 for Intel X86 EM64T Linux

 Parts of Q-Chem use Armadillo 8.300.2 (Tropical Shenanigans).
 http://arma.sourceforge.net/

 Q-Chem begins on Mon Feb  7 08:13:44 2022  

Host: 
0

     Scratch files written to /gpfs/fs0/scratch/a/aspuru/rhickman/descriptor_computation/qchem245287//
 Jul1719 |scratch|qcdevops|jenkins|workspace|build_RNUM -1
Processing $rem in /scinet/niagara/software/commercial/qc52/config/preferences:
	 MEM_TOTAL  4000 
NAlpha2: 80
NElect   80
Mult     1

Checking the input file for inconsistencies... 	...done.

--------------------------------------------------------------
User input:
--------------------------------------------------------------
$molecule
0 1
C        -1.93886924930000   -2.16225584190000   -0.54335175630000
C        -1.86988853540000   -0.99980031080000    0.09204966760000
C        -0.74434011350000   -0.08767459390000    0.07702026170000
C        -0.86649252580000    1.32176901070000    0.12610622100000
C        -2.11027136140000    2.12518951680000    0.26000669700000
N         0.31772166100000    1.89604134530000    0.01277464740000
N         1.20761495150000    0.91541347610000   -0.10872206030000
C         2.60214747090000    1.23330415360000   -0.20718120720000
C         0.62842909260000   -0.31375731620000   -0.06826119860000
C         1.43892107010000   -1.51093179560000   -0.11027446480000
C         1.13835837920000   -2.65886730330000    0.48465382370000
H        -2.82741168990000   -2.76952385000000   -0.50991240640000
H        -1.11573635620000   -2.54509544210000   -1.12243023530000
H        -2.73433133700000   -0.63398522390000    0.63379784510000
H        -2.63259153830000    1.86998339790000    1.18161895630000
H        -2.78095362010000    1.93197537990000   -0.57649180340000
H        -1.85472200940000    3.18077694790000    0.27606601490000
H         2.68970556420000    2.31597568570000   -0.14389354900000
H         3.01400282130000    0.89547781660000   -1.16112126400000
H         3.16496736700000    0.77467022500000    0.60840085590000
H         2.37539140960000   -1.41488314470000   -0.64714628210000
H         0.23069889180000   -2.78332226290000    1.04905094620000
H         1.79440445180000   -3.51014081750000    0.42542698010000
$end

$rem
BASIS = 6-31G*
GUI = 2
METHOD = B3LYP
PRINT_ORBITALS false
MOLDEN_FORMAT false
--------------------------------------------------------------
 ----------------------------------------------------------------
             Standard Nuclear Orientation (Angstroms)
    I     Atom           X                Y                Z
 ----------------------------------------------------------------
    1      C       1.8679562484     2.2023414005     0.5503336210
    2      C       0.7142842036     1.9853071558    -0.0675119257
    3      C      -0.0332543733     0.7442532459    -0.0620598444
    4      C      -1.4467411033     0.6710441329    -0.0856735633
    5      C      -2.4165902812     1.7939709084    -0.1796292337
    6      N      -1.8497541593    -0.5832170322     0.0113079118
    7      N      -0.7535223693    -1.3309629026     0.0976474295
    8      C      -0.8739011150    -2.7577034117     0.1710648066
    9      C       0.3829171536    -0.5865351072     0.0498285503
   10      C       1.6811077971    -1.2241589542     0.0549253338
   11      C       2.7650270613    -0.7562332470    -0.5518679510
   12      H       2.3459845666     3.1668677341     0.5262884280
   13      H       2.3717198557     1.4291769183     1.1052072242
   14      H       0.2223855131     2.8010169971    -0.5844512414
   15      H      -2.2535183864     2.3641650309    -1.0937429611
   16      H      -2.3019495881     2.4687776364     0.6679375939
   17      H      -3.4268985768     1.3951160991    -0.1841221825
   18      H      -1.9351212600    -2.9930589816     0.1234312745
   19      H      -0.4643647765    -3.1370452842     1.1102840712
   20      H      -0.3575497134    -3.2358743712    -0.6638119394
   21      H       1.7255020934    -2.1750301252     0.5729084908
   22      H       2.7522160904     0.1705697770    -1.0984490774
   23      H       3.6996963346    -1.2891386269    -0.5206258318
 ----------------------------------------------------------------
 Molecular Point Group                 C1    NOp =  1
 Largest Abelian Subgroup              C1    NOp =  1
 Nuclear Repulsion Energy =         594.57305894 hartrees
 There are       40 alpha and       40 beta electrons
 Requested basis set is 6-31G(d)
 There are 68 shells and 189 basis functions

 Total QAlloc Memory Limit   4000 MB
 Mega-Array Size       188 MB
 MEM_STATIC part       192 MB
 A cutoff of  1.0D-08 yielded   1774 shell pairs
 There are     15177 function pairs
 Smallest overlap matrix eigenvalue = 6.38E-04

 Scale SEOQF with 1.000000e-01/1.000000e-01/1.000000e+00

 Standard Electronic Orientation quadrupole field applied
 Nucleus-field energy     =     0.0000000120 hartrees
 Guess from superposition of atomic densities
 Warning:  Energy on first SCF cycle will be non-variational
 SAD guess density has 80.000000 electrons

 -----------------------------------------------------------------------
  General SCF calculation program by
  Eric Jon Sundstrom, Paul Horn, Yuezhi Mao, Dmitri Zuev, Alec White,
  David Stuck, Shaama M.S., Shane Yost, Joonho Lee, David Small,
  Daniel Levine, Susi Lehtola, Hugh Burton, Evgeny Epifanovsky,
  Bang C. Huynh
 -----------------------------------------------------------------------
 Exchange:     0.2000 Hartree-Fock + 0.0800 Slater + 0.7200 B88
 Correlation:  0.1900 VWN1RPA + 0.8100 LYP
 Using SG-1 standard quadrature grid
 A restricted SCF calculation will be
 performed using DIIS
 SCF converges when DIIS error is below 1.0e-05
 ---------------------------------------
  Cycle       Energy         DIIS error
 ---------------------------------------
    1    -462.2035984680      6.02e-02  
    2    -459.4430874993      6.21e-03  
    3    -459.3969834855      7.18e-03  
    4    -459.6086586937      2.11e-03  
    5    -459.6271473512      4.35e-04  
    6    -459.6278112282      1.91e-04  
    7    -459.6279532384      5.24e-05  
    8    -459.6279633103      2.20e-05  
    9    -459.6279653403      4.13e-06  Convergence criterion met
 ---------------------------------------
 SCF time:   CPU 29.47s  wall 30.00s 
 SCF   energy in the final basis set =     -459.6279653403
 Total energy in the final basis set =     -459.6279653403
 
 --------------------------------------------------------------
 
                    Orbital Energies (a.u.)
 --------------------------------------------------------------
 
 Alpha MOs
 -- Occupied --
-14.4043 -14.3322 -10.2266 -10.2165 -10.1984 -10.1964 -10.1844 -10.1830
-10.1744 -10.1743 -10.1681  -1.0505  -0.8506  -0.8199  -0.7702  -0.7422
 -0.7322  -0.6695  -0.6225  -0.5893  -0.5577  -0.5237  -0.5077  -0.4834
 -0.4670  -0.4403  -0.4341  -0.4249  -0.4185  -0.4075  -0.3864  -0.3845
 -0.3820  -0.3533  -0.3513  -0.3012  -0.2920  -0.2704  -0.2250  -0.2020
 -- Virtual --
 -0.0302   0.0265   0.0613   0.0952   0.1105   0.1204   0.1333   0.1379
  0.1537   0.1569   0.1629   0.1687   0.1704   0.1753   0.2000   0.2069
  0.2232   0.2586   0.2743   0.2997   0.3258   0.3361   0.3539   0.3600
  0.3723   0.4429   0.4739   0.4877   0.5175   0.5237   0.5361   0.5439
  0.5471   0.5645   0.5798   0.5819   0.6099   0.6147   0.6247   0.6423
  0.6603   0.6667   0.6860   0.6939   0.7153   0.7330   0.7462   0.7694
  0.7791   0.7993   0.8180   0.8390   0.8475   0.8550   0.8742   0.8752
  0.8881   0.8927   0.9033   0.9161   0.9281   0.9370   0.9469   0.9692
  0.9805   0.9867   1.0033   1.0316   1.0543   1.0632   1.1158   1.1307
  1.1489   1.1738   1.2262   1.2551   1.2891   1.3195   1.3280   1.3539
  1.3873   1.4200   1.4476   1.4508   1.4961   1.5091   1.5555   1.5628
  1.6325   1.6619   1.6786   1.6943   1.7906   1.8177   1.8407   1.8679
  1.9043   1.9152   1.9275   1.9428   1.9804   2.0094   2.0274   2.0429
  2.0552   2.1031   2.1323   2.1593   2.1644   2.1719   2.2007   2.2131
  2.2342   2.2660   2.2936   2.3225   2.3424   2.3532   2.3821   2.3934
  2.4250   2.4395   2.4779   2.5425   2.5740   2.6147   2.6482   2.6801
  2.7202   2.7341   2.7550   2.7828   2.8890   2.9569   3.0057   3.1688
  3.2602   3.3158   3.8878   4.1043   4.1203   4.1418   4.1731   4.2146
  4.2599   4.3306   4.3822   4.4915   4.7498
 --------------------------------------------------------------
 
          Ground-State Mulliken Net Atomic Charges

     Atom                 Charge (a.u.)
  ----------------------------------------
      1 C                    -0.346655
      2 C                    -0.132350
      3 C                    -0.063660
      4 C                     0.301399
      5 C                    -0.523581
      6 N                    -0.360916
      7 N                    -0.298653
      8 C                    -0.324325
      9 C                     0.334144
     10 C                    -0.131257
     11 C                    -0.334784
     12 H                     0.134855
     13 H                     0.147436
     14 H                     0.125378
     15 H                     0.158321
     16 H                     0.163863
     17 H                     0.172413
     18 H                     0.197666
     19 H                     0.168590
     20 H                     0.173306
     21 H                     0.131840
     22 H                     0.164121
     23 H                     0.142850
  ----------------------------------------
  Sum of atomic charges =     0.000000

 -----------------------------------------------------------------
                    Cartesian Multipole Moments
 -----------------------------------------------------------------
    Charge (ESU x 10^10)
                 0.0000
    Dipole Moment (Debye)
         X       1.1870      Y      -1.2295      Z      -0.0043
       Tot       1.7090
    Quadrupole Moments (Debye-Ang)
        XX     -66.2048     XY      -1.9155     YY     -56.1493
        XZ       0.3307     YZ      -2.1960     ZZ     -67.1044
    Octopole Moments (Debye-Ang^2)
       XXX      11.5857    XXY       1.2661    XYY      -5.6276
       YYY     -20.4612    XXZ      -0.6637    XYZ       0.0414
       YYZ       0.5576    XZZ      -2.5570    YZZ      -2.7954
       ZZZ       0.2716
    Hexadecapole Moments (Debye-Ang^3)
      XXXX   -1159.5510   XXXY     -19.0729   XXYY    -365.7683
      XYYY      26.4901   YYYY   -1057.8755   XXXZ      -4.3001
      XXYZ       1.1780   XYYZ       4.0296   YYYZ     -14.6215
      XXZZ    -221.5808   XYZZ      -0.4994   YYZZ    -209.4404
      XZZZ       0.7653   YZZZ      -6.6216   ZZZZ    -120.3016
 -----------------------------------------------------------------
Archival summary:
1\1\nia0005.scinet.local\SP\ProcedureUnspecified\6-31G*\2912\rhickman\MonFeb708:14:142022MonFeb708:14:142022\0\\#,ProcedureUnspecified,6-31G*,\\0,1\N\N,1,1.32978\C,2,1.32098,1,106.689\C,1,1.35939,2,112.269,3,-0.426836,0\C,4,1.39883,1,105.967,2,0.657525,0\C,1,1.43369,2,119.583,3,-177.98,0\H,6,1.08805,1,107.152,2,0.921099,0\H,6,1.09192,1,110.912,2,120.33,0\H,6,1.09259,1,110.981,2,-118.166,0\C,4,1.44634,1,120.585,2,-176.573,0\H,10,1.08371,4,115.168,1,-29.3048,0\C,10,1.32742,4,125.163,1,148.291,0\H,12,1.07605,10,121.742,4,0.817135,0\H,12,1.07637,10,121.418,4,-179.095,0\C,5,1.44881,4,131.432,1,175.44,0\H,15,1.08378,5,114.352,4,154.476,0\C,15,1.32657,5,125.952,4,-29.3824,0\H,17,1.07675,15,121.483,5,-177.837,0\H,17,1.07678,15,121.965,5,1.79034,0\C,3,1.48674,2,121.518,1,-179.042,0\H,20,1.0862,3,109.249,2,-1.70499,0\H,20,1.08944,3,110.489,2,118.426,0\H,20,1.08964,3,110.526,2,-121.809,0\\\@

 Total job time:  29.74s(wall), 29.63s(cpu) 
 Mon Feb  7 08:14:14 2022

        *************************************************************
        *                                                           *
        *  Thank you very much for using Q-Chem.  Have a nice day.  *
        *                                                           *
        *************************************************************


