
Running Job 1 of 1 tidas/B033/conf-4/spe_input.inp
qchem tidas/B033/conf-4/spe_input.inp_148511.0 /home/a/aspuru/seifridm/acdc_laser/descriptor_computation/qchem148511/ 0
/gpfs/fs1/scinet/niagara/software/commercial/qc54/exe/qcprog.exe_s tidas/B033/conf-4/spe_input.inp_148511.0 /home/a/aspuru/seifridm/acdc_laser/descriptor_computation/qchem148511/
                  Welcome to Q-Chem
     A Quantum Leap Into The Future Of Chemistry


 Q-Chem 5.4, Q-Chem, Inc., Pleasanton, CA (2021)

 License issued to: SRG Alan Aspuru-Guzik, University of Toronto

 E. Epifanovsky,  A. T. B. Gilbert,  Xintian Feng,  Joonho Lee,  Yuezhi Mao,  
 N. Mardirossian,  P. Pokhilko,  A. White,  M. Wormit,  M. P. Coons,  
 A. L. Dempwolff,  Zhengting Gan,  D. Hait,  P. R. Horn,  L. D. Jacobson,  
 I. Kaliman,  J. Kussmann,  A. W. Lange,  Ka Un Lao,  D. S. Levine,  Jie Liu,  
 S. C. McKenzie,  A. F. Morrison,  K. Nanda,  F. Plasser,  D. R. Rehn,  
 M. L. Vidal,  Zhi-Qiang You,  Ying Zhu,  B. Alam,  B. Albrecht,  
 A. Aldossary,  E. Alguire,  J. H. Andersen,  D. Barton,  K. Begam,  A. Behn,  
 Y. A. Bernard,  E. J. Berquist,  H. Burton,  A. Carreras,  K. Carter-Fenk,  
 Romit Chakraborty,  A. D. Chien,  K. D. Closser,  V. Cofer-Shabica,  
 S. Dasgupta,  Jia Deng,  M. de Wergifosse,  M. Diedenhofen,  Hainam Do,  
 S. Ehlert,  Po-Tung Fang,  S. Fatehi,  Qingguo Feng,  T. Friedhoff,  
 J. Gayvert,  Qinghui Ge,  G. Gidofalvi,  M. Goldey,  J. Gomes,  
 C. Gonzalez-Espinoza,  S. Gulania,  A. Gunina,  M. W. D. Hanson-Heine,  
 P. H. P. Harbach,  A. W. Hauser,  M. F. Herbst,  M. Hernandez Vera,  
 M. Hodecker,  Z. C. Holden,  S. Houck,  Xunkun Huang,  Kerwin Hui,  
 B. C. Huynh,  M. Ivanov,  Hyunjun Ji,  Hanjie Jiang,  B. Kaduk,  S. Kaehler,  
 K. Khistyaev,  Jaehoon Kim,  P. Klunzinger,  Z. Koczor-Benda,  
 Joong Hoon Koh,  D. Kosenkov,  L. Koulias,  T. Kowalczyk,  C. M. Krauter,  
 K. Kue,  A. Kunitsa,  T. Kus,  A. Landau,  K. V. Lawler,  D. Lefrancois,  
 S. Lehtola,  Rain Li,  Yi-Pei Li,  Jiashu Liang,  M. Liebenthal,  
 Hung-Hsuan Lin,  You-Sheng Lin,  Fenglai Liu,  Kuan-Yu Liu,  
 M. Loipersberger,  A. Luenser,  A. Manjanath,  P. Manohar,  E. Mansoor,  
 S. F. Manzer,  Shan-Ping Mao,  A. V. Marenich,  T. Markovich,  S. Mason,  
 S. A. Maurer,  P. F. McLaughlin,  M. F. S. J. Menger,  J.-M. Mewes,  
 S. A. Mewes,  P. Morgante,  J. W. Mullinax,  K. J. Oosterbaan,  G. Paran,  
 Alexander C. Paul,  Suranjan K. Paul,  F. Pavosevic,  Zheng Pei,  S. Prager,  
 E. I. Proynov,  E. Ramos,  B. Rana,  A. E. Rask,  A. Rettig,  R. M. Richard,  
 F. Rob,  E. Rossomme,  T. Scheele,  M. Scheurer,  M. Schneider,  
 N. Sergueev,  S. M. Sharada,  W. Skomorowski,  D. W. Small,  C. J. Stein,  
 Yu-Chuan Su,  E. J. Sundstrom,  Zhen Tao,  J. Thirman,  T. Tsuchimochi,  
 N. M. Tubman,  S. P. Veccham,  O. Vydrov,  J. Wenzel,  J. Witte,  A. Yamada,  
 Kun Yao,  S. Yeganeh,  S. R. Yost,  A. Zech,  Igor Ying Zhang,  Xing Zhang,  
 Yu Zhang,  D. Zuev,  A. Aspuru-Guzik,  A. T. Bell,  N. A. Besley,  
 K. B. Bravaya,  B. R. Brooks,  D. Casanova,  Jeng-Da Chai,  S. Coriani,  
 C. J. Cramer,  A. E. DePrince, III,  R. A. DiStasio Jr.,  A. Dreuw,  
 B. D. Dunietz,  T. R. Furlani,  W. A. Goddard III,  S. Grimme,  
 S. Hammes-Schiffer,  T. Head-Gordon,  W. J. Hehre,  Chao-Ping Hsu,  
 T.-C. Jagau,  Yousung Jung,  A. Klamt,  Jing Kong,  D. S. Lambrecht,  
 WanZhen Liang,  N. J. Mayhall,  C. W. McCurdy,  J. B. Neaton,  T. Neudecker,  
 C. Ochsenfeld,  J. A. Parkhill,  R. Peverati,  V. A. Rassolov,  Yihan Shao,  
 L. V. Slipchenko,  R. P. Steele,  J. E. Subotnik,  A. J. W. Thom,  
 A. Tkatchenko,  D. G. Truhlar,  T. Van Voorhis,  T. A. Wesolowski,  
 K. B. Whaley,  H. L. Woodcock III,  P. M. Zimmerman,  S. Faraji,  
 P. M. W. Gill,  M. Head-Gordon,  J. M. Herbert,  A. I. Krylov

 Additional authors since Version 5.4.0: 
 Chandrima Chakravarty,  L. Cunha,  R. Kang,  Yongbin Kim,  S. Kotaru,  
 Shaozhi Li,  Xiangyuan Li,  F. Matz,  A. Molle,  V. Parravicini,  
 Haisheng Ren,  Hengyuan Shen,  Yingli Su,  Hung-Yi Tsai,  C. Utku,  
 Fang Wang,  Jeff Yang,  F. Zeller

 Contributors to earlier versions of Q-Chem not listed above: 
 R. D. Adamson,  B. Austin,  R. Baer,  J. Baker,  G. J. O. Beran,  
 K. Brandhorst,  S. T. Brown,  E. F. C. Byrd,  Arup K. Chakraborty,  
 G. K. L. Chan,  Chun-Min Chang,  Yunqing Chen,  C.-L. Cheng,  
 Siu Hung Chien,  D. M. Chipman,  D. L. Crittenden,  H. Dachsel,  
 R. J. Doerksen,  A. D. Dutoi,  R. G. Edgar,  J. Fosso-Tande,  
 L. Fusti-Molnar,  D. Ghosh,  A. Ghysels,  A. Golubeva-Zadorozhnaya,  
 J. Gonthier,  M. S. Gordon,  S. R. Gwaltney,  G. Hawkins,  J. E. Herr,  
 A. Heyden,  S. Hirata,  E. G. Hohenstein,  G. Kedziora,  F. J. Keil,  
 C. Kelley,  Jihan Kim,  R. A. King,  R. Z. Khaliullin,  P. P. Korambath,  
 W. Kurlancheek,  A. Laurent,  A. M. Lee,  M. S. Lee,  S. V. Levchenko,  
 Ching Yeh Lin,  D. Liotard,  E. Livshits,  R. C. Lochan,  I. Lotan,  
 L. A. Martinez-Martinez,  P. E. Maslen,  N. Nair,  D. P. O'Neill,  
 D. Neuhauser,  E. Neuscamman,  C. M. Oana,  R. Olivares-Amaya,  R. Olson,  
 T. M. Perrine,  B. Peters,  P. A. Pieniazek,  A. Prociuk,  Y. M. Rhee,  
 J. Ritchie,  M. A. Rohrdanz,  E. Rosta,  N. J. Russ,  H. F. Schaefer III,  
 M. W. Schmidt,  N. E. Schultz,  S. Sharma,  N. Shenvi,  C. D. Sherrill,  
 A. C. Simmonett,  A. Sodt,  T. Stein,  D. Stuck,  K. S. Thanthiriwatte,  
 V. Vanovschi,  L. Vogt,  Tao Wang,  A. Warshel,  M. A. Watson,  
 C. F. Williams,  Q. Wu,  X. Xu,  Jun Yang,  W. Zhang,  Yan Zhao

   Please cite Q-Chem as follows:
  "Software for the frontiers of quantum chemistry:
   An overview of developments in the Q-Chem 5 package"
   J. Chem. Phys. 155, 084801 (2021)
   https://doi.org/10.1063/5.0055522 (open access)

 Q-Chem 5.4.2 for Intel X86 EM64T Linux

 Parts of Q-Chem use Armadillo 9.900.5 (Nocturnal Misbehaviour).
 http://arma.sourceforge.net/

 Q-Chem begins on Fri Aug 12 13:12:50 2022  

 Host: 
0

     Scratch files written to /home/a/aspuru/seifridm/acdc_laser/descriptor_computation/qchem148511//
 Dec1321 |scratch|qcdevops|jenkins|workspace|build_RNUM 6959   
 Processing $rem in /gpfs/fs1/scinet/niagara/software/commercial/qc54/config/preferences:
 Processing $rem in /home/a/aspuru/seifridm/.qchemrc:

 Checking the input file for inconsistencies... 	...done.

--------------------------------------------------------------
User input:
--------------------------------------------------------------
$molecule
0 1
C           -3.14976384380000        2.32386652410000        1.06709965910000
C           -3.03978623990000        1.25844208310000        0.28485642340000
C           -1.86830836050000        0.39133112150000        0.17392142630000
C           -2.07547841500000       -0.94113131310000       -0.18327489140000
C           -1.01251211040000       -1.81815184090000       -0.28190393460000
Cl          -1.30124759170000       -3.46320435390000       -0.72467423640000
C            0.27976269740000       -1.40284390240000       -0.01761495670000
C            0.51775602930000       -0.07471907200000        0.32671630670000
C            1.84934490460000        0.40286379980000        0.68048117100000
C            3.01121514320000       -0.13023959600000        0.33798364930000
F            3.22042983990000       -1.18692369420000       -0.43696780400000
F            4.18468249830000        0.36353026240000        0.72477849710000
C           -0.55552085770000        0.83178181900000        0.40001208700000
O           -0.30667276600000        2.15071966420000        0.70432351790000
C            0.26302927610000        2.92333097030000       -0.34477600120000
C           -0.71534048730000        3.18268172960000       -1.48426525530000
H           -4.06131376830000        2.89702373850000        1.10099118330000
H           -2.34422592090000        2.65235209980000        1.69895520980000
H           -3.88679673840000        0.94081805220000       -0.31106664660000
H           -3.07853082430000       -1.28991241610000       -0.37488276890000
H            1.08977388110000       -2.11110685700000       -0.06532683920000
H            1.89164931980000        1.28639298510000        1.30147081810000
H            1.16447760960000        2.43296679620000       -0.73629614990000
H            0.54908081330000        3.86337657700000        0.13319764270000
H           -0.99945296850000        2.24650447300000       -1.96045948480000
H           -0.24750011520000        3.82522036870000       -2.22496622850000
H           -1.61292508530000        3.66607777330000       -1.10770311030000
$end

$rem
BASIS = 6-31G*
GUI = 2
METHOD = B3LYP
PRINT_ORBITALS false
MOLDEN_FORMAT false
$end
--------------------------------------------------------------
 ----------------------------------------------------------------
             Standard Nuclear Orientation (Angstroms)
    I     Atom           X                Y                Z
 ----------------------------------------------------------------
    1      C       3.6950728674    -0.9525090184     1.0136705285
    2      C       3.1846999665     0.0648336164     0.3327430301
    3      C       1.7684716115     0.4158174048     0.2452442186
    4      C       1.4411645392     1.7544778724     0.0288579589
    5      C       0.1207839401     2.1553071563    -0.0398517029
    6      Cl     -0.2529575072     3.8209979271    -0.3070652426
    7      C      -0.9084259038     1.2449934286     0.1162237297
    8      C      -0.6110506138    -0.1002624909     0.3186462043
    9      C      -1.6529569221    -1.0925444323     0.5556519107
   10      C      -2.9273032682    -1.0183689448     0.2063875100
   11      F      -3.5256433384    -0.0483305931    -0.4732569443
   12      F      -3.8177054539    -1.9676861880     0.4828387361
   13      C       0.7306089900    -0.5213196449     0.3598747569
   14      O       1.0148004197    -1.8580343252     0.5228378022
   15      C       0.8034548446    -2.6722980827    -0.6236376790
   16      C       1.8166203743    -2.4062134482    -1.7307061265
   17      H       4.7578431384    -1.1269762000     1.0393930149
   18      H       3.0760888446    -1.6343796191     1.5686000906
   19      H       3.8457377518     0.7489568645    -0.1853694506
   20      H       2.2295514316     2.4837680906    -0.0762983913
   21      H      -1.9305037254     1.5840166936     0.0949844575
   22      H      -1.3522892426    -1.9850048280     1.0858924366
   23      H      -0.2140410251    -2.5308458347    -1.0122860608
   24      H       0.9033828693    -3.6955480610    -0.2535783585
   25      H       1.7164043234    -1.3874495541    -2.0994683442
   26      H       1.6450132461    -3.0953935944    -2.5528680131
   27      H       2.8279832291    -2.5411635838    -1.3564568360
 ----------------------------------------------------------------
 Molecular Point Group                 C1    NOp =  1
 Largest Abelian Subgroup              C1    NOp =  1
 Nuclear Repulsion Energy =        1195.38989478 hartrees
 There are       63 alpha and       63 beta electrons
 Requested basis set is 6-31G(d)
 There are 87 shells and 266 basis functions

 Total QAlloc Memory Limit   8000 MB
 Mega-Array Size       188 MB
 MEM_STATIC part       192 MB
 A cutoff of  1.0D-08 yielded   2468 shell pairs
 There are     24137 function pairs
 Smallest overlap matrix eigenvalue = 3.07E-04

 Scale SEOQF with 1.000000e-01/1.000000e-01/1.000000e-01

 Standard Electronic Orientation quadrupole field applied
 Nucleus-field energy     =     0.0000000524 hartrees
 Guess from superposition of atomic densities
 Warning:  Energy on first SCF cycle will be non-variational
 SAD guess density has 126.000000 electrons

 -----------------------------------------------------------------------
  General SCF calculation program by
  Eric Jon Sundstrom, Paul Horn, Yuezhi Mao, Dmitri Zuev, Alec White,
  David Stuck, Shaama M.S., Shane Yost, Joonho Lee, David Small,
  Daniel Levine, Susi Lehtola, Hugh Burton, Evgeny Epifanovsky,
  Bang C. Huynh
 -----------------------------------------------------------------------
 Exchange:     0.2000 Hartree-Fock + 0.0800 Slater + 0.7200 B88
 Correlation:  0.1900 VWN1RPA + 0.8100 LYP
 Using SG-1 standard quadrature grid
 A restricted SCF calculation will be
 performed using DIIS
 SCF converges when DIIS error is below 1.0e-05
 ---------------------------------------
  Cycle       Energy         DIIS error
 ---------------------------------------
    1   -1202.4159066984      4.79e-02  
    2   -1198.7014808233      5.21e-03  
    3   -1198.5372123904      6.76e-03  
    4   -1198.9269134475      1.25e-03  
    5   -1198.9396672420      4.56e-04  
    6   -1198.9412161566      1.84e-04  
    7   -1198.9415035962      5.66e-05  
    8   -1198.9415308356      1.66e-05  
    9   -1198.9415343464      5.10e-06  Convergence criterion met
 ---------------------------------------
 SCF time:   CPU 69.37s  wall 71.00s 
 SCF   energy in the final basis set =    -1198.9415343464
 Total energy in the final basis set =    -1198.9415343464
 
 --------------------------------------------------------------
 
                    Orbital Energies (a.u.)
 --------------------------------------------------------------
 
 Alpha MOs
 -- Occupied --
******** -24.7488 -24.7399 -19.1734 -10.3632 -10.2526 -10.2496 -10.2437
-10.2175 -10.2090 -10.2077 -10.2023 -10.2019 -10.1951 -10.1818 -10.1788
 -9.4655  -7.2293  -7.2199  -7.2195  -1.2909  -1.2301  -1.0654  -0.9006
 -0.8522  -0.8239  -0.7808  -0.7697  -0.7403  -0.7211  -0.6613  -0.6433
 -0.6288  -0.6022  -0.5794  -0.5653  -0.5267  -0.5234  -0.5214  -0.5074
 -0.4856  -0.4749  -0.4613  -0.4480  -0.4461  -0.4431  -0.4329  -0.4300
 -0.4156  -0.4073  -0.3938  -0.3881  -0.3855  -0.3834  -0.3598  -0.3487
 -0.3334  -0.3172  -0.3122  -0.2855  -0.2697  -0.2311  -0.2269
 -- Virtual --
 -0.0414  -0.0277   0.0296   0.0409   0.0653   0.0995   0.1077   0.1166
  0.1220   0.1412   0.1457   0.1519   0.1562   0.1658   0.1692   0.1774
  0.1806   0.1910   0.1975   0.2117   0.2354   0.2430   0.2759   0.2917
  0.3101   0.3235   0.3460   0.3693   0.3921   0.4055   0.4127   0.4337
  0.4401   0.4448   0.4719   0.4880   0.4974   0.5018   0.5133   0.5213
  0.5291   0.5328   0.5443   0.5573   0.5587   0.5708   0.5757   0.5979
  0.6051   0.6117   0.6150   0.6223   0.6315   0.6430   0.6692   0.6848
  0.6892   0.6942   0.7417   0.7507   0.7713   0.7829   0.7935   0.8069
  0.8182   0.8255   0.8338   0.8540   0.8593   0.8663   0.8731   0.8795
  0.8994   0.9061   0.9087   0.9267   0.9292   0.9411   0.9627   0.9686
  0.9701   1.0003   1.0139   1.0224   1.0354   1.0578   1.0924   1.1018
  1.1095   1.1153   1.1401   1.1624   1.1740   1.1807   1.1951   1.2099
  1.2191   1.2235   1.2378   1.2873   1.3065   1.3343   1.3513   1.3671
  1.3708   1.3842   1.4145   1.4377   1.4445   1.4612   1.4681   1.4845
  1.5057   1.5200   1.5330   1.5493   1.5710   1.6141   1.6249   1.6707
  1.7083   1.7123   1.7493   1.7656   1.7784   1.7887   1.7940   1.8108
  1.8380   1.8460   1.8632   1.8728   1.8922   1.9138   1.9384   1.9461
  1.9646   1.9695   1.9872   1.9988   2.0010   2.0327   2.0449   2.0531
  2.0685   2.0828   2.1148   2.1392   2.1498   2.1567   2.2100   2.2134
  2.2233   2.2470   2.2672   2.2765   2.3066   2.3178   2.3489   2.3692
  2.3823   2.4036   2.4291   2.4619   2.5225   2.5267   2.5531   2.5747
  2.5918   2.6411   2.6483   2.6673   2.7000   2.7027   2.7389   2.7693
  2.8419   2.8641   2.8995   2.9076   2.9295   3.0272   3.0472   3.1557
  3.1840   3.3140   3.4426   4.0654   4.0893   4.1100   4.1120   4.1426
  4.1799   4.2276   4.2561   4.2876   4.4009   4.4412   4.4655   4.5168
  4.7322   4.8743   5.2577
 --------------------------------------------------------------
 
          Ground-State Mulliken Net Atomic Charges

     Atom                 Charge (a.u.)
  ----------------------------------------
      1 C                    -0.336100
      2 C                    -0.128035
      3 C                     0.155715
      4 C                    -0.218253
      5 C                    -0.059348
      6 Cl                   -0.015449
      7 C                    -0.209616
      8 C                     0.166932
      9 C                    -0.315156
     10 C                     0.554485
     11 F                    -0.233278
     12 F                    -0.244498
     13 C                     0.211105
     14 O                    -0.533163
     15 C                    -0.042749
     16 C                    -0.460165
     17 H                     0.140676
     18 H                     0.170885
     19 H                     0.133584
     20 H                     0.151752
     21 H                     0.159152
     22 H                     0.184549
     23 H                     0.142249
     24 H                     0.150804
     25 H                     0.160334
     26 H                     0.147195
     27 H                     0.166393
  ----------------------------------------
  Sum of atomic charges =     0.000000

 -----------------------------------------------------------------
                    Cartesian Multipole Moments
 -----------------------------------------------------------------
    Charge (ESU x 10^10)
                 0.0000
    Dipole Moment (Debye)
         X       1.2497      Y      -2.0173      Z      -0.6626
       Tot       2.4638
    Quadrupole Moments (Debye-Ang)
        XX     -95.3078     XY      -0.2845     YY     -98.2873
        XZ      -1.5867     YZ       1.6463     ZZ     -98.9453
    Octopole Moments (Debye-Ang^2)
       XXX     -16.3328    XXY       5.8432    XYY      -7.9942
       YYY     -42.4692    XXZ       0.6072    XYZ      -2.5669
       YYZ      -4.6544    XZZ     -20.9055    YZZ      -9.3843
       ZZZ      -2.9321
    Hexadecapole Moments (Debye-Ang^3)
      XXXX   -2583.0687   XXXY       8.5564   XXYY    -837.4075
      XYYY      29.8805   YYYY   -2430.1597   XXXZ       5.7466
      XXYZ     -14.2905   XYYZ      -1.2356   YYYZ      -5.4062
      XXZZ    -508.1909   XYZZ      11.1585   YYZZ    -467.4213
      XZZZ      -2.2150   YZZZ     -14.2172   ZZZZ    -368.8367
 -----------------------------------------------------------------
 Total job time:  71.42s(wall), 69.94s(cpu) 
 Fri Aug 12 13:14:02 2022

        *************************************************************
        *                                                           *
        *  Thank you very much for using Q-Chem.  Have a nice day.  *
        *                                                           *
        *************************************************************


