
Running Job 1 of 1 fragments/C063/conf-8/spe_input.inp
qchem fragments/C063/conf-8/spe_input.inp_21235.0 /gpfs/fs0/scratch/a/aspuru/rhickman/descriptor_computation/qchem21235/ 0
/scinet/niagara/software/commercial/qc52/exe/qcprog.exe_s fragments/C063/conf-8/spe_input.inp_21235.0 /gpfs/fs0/scratch/a/aspuru/rhickman/descriptor_computation/qchem21235/
                  Welcome to Q-Chem
     A Quantum Leap Into The Future Of Chemistry


 Q-Chem 5.2, Q-Chem, Inc., Pleasanton, CA (2019)

 License issued to: SRG Alan Aspuru-Guzik, University of Toronto

 Yihan Shao,  Zhengting Gan,  E. Epifanovsky,  A. T. B. Gilbert,  M. Wormit,  
 J. Kussmann,  A. W. Lange,  A. Behn,  Jia Deng,  Xintian Feng,  D. Ghosh,  
 M. Goldey,  P. R. Horn,  L. D. Jacobson,  I. Kaliman,  T. Kus,  A. Landau,  
 Jie Liu,  E. I. Proynov,  R. M. Richard,  R. P. Steele,  E. J. Sundstrom,  
 H. L. Woodcock III,  P. M. Zimmerman,  D. Zuev,  B. Albrecht,  E. Alguire,  
 S. A. Baeppler,  D. Barton,  Z. Benda,  Y. A. Bernard,  E. J. Berquist,  
 K. B. Bravaya,  H. Burton,  D. Casanova,  Chun-Min Chang,  Yunqing Chen,  
 A. Chien,  K. D. Closser,  M. P. Coons,  S. Coriani,  S. Dasgupta,  
 A. L. Dempwolff,  M. Diedenhofen,  Hainam Do,  R. G. Edgar,  Po-Tung Fang,  
 S. Faraji,  S. Fatehi,  Qingguo Feng,  K. D. Fenk,  J. Fosso-Tande,  
 J. Gayvert,  Qinghui Ge,  A. Ghysels,  G. Gidofalvi,  J. Gomes,  
 J. Gonthier,  A. Gunina,  D. Hait,  M. W. D. Hanson-Heine,  
 P. H. P. Harbach,  A. W. Hauser,  M. F. Herbst,  J. E. Herr,  
 E. G. Hohenstein,  Z. C. Holden,  Kerwin Hui,  B. C. Huynh,  T.-C. Jagau,  
 Hyunjun Ji,  B. Kaduk,  K. Khistyaev,  Jaehoon Kim,  P. Klunzinger,  K. Koh,  
 D. Kosenkov,  L. Koulias,  T. Kowalczyk,  C. M. Krauter,  A. Kunitsa,  
 Ka Un Lao,  A. Laurent,  K. V. Lawler,  Joonho Lee,  D. Lefrancois,  
 S. Lehtola,  D. S. Levine,  Yi-Pei Li,  You-Sheng Lin,  Fenglai Liu,  
 E. Livshits,  A. Luenser,  P. Manohar,  E. Mansoor,  S. F. Manzer,  
 Shan-Ping Mao,  Yuezhi Mao,  N. Mardirossian,  A. V. Marenich,  
 T. Markovich,  L. A. Martinez-Martinez,  S. A. Maurer,  N. J. Mayhall,  
 S. C. McKenzie,  J.-M. Mewes,  P. Morgante,  A. F. Morrison,  
 J. W. Mullinax,  K. Nanda,  T. S. Nguyen-Beck,  R. Olivares-Amaya,  
 J. A. Parkhill,  Zheng Pei,  T. M. Perrine,  F. Plasser,  P. Pokhilko,  
 S. Prager,  A. Prociuk,  E. Ramos,  D. R. Rehn,  F. Rob,  M. Scheurer,  
 M. Schneider,  N. Sergueev,  S. M. Sharada,  S. Sharma,  D. W. Small,  
 T. Stauch,  T. Stein,  Yu-Chuan Su,  A. J. W. Thom,  A. Tkatchenko,  
 T. Tsuchimochi,  N. M. Tubman,  L. Vogt,  M. L. Vidal,  O. Vydrov,  
 M. A. Watson,  J. Wenzel,  M. de Wergifosse,  T. A. Wesolowski,  A. White,  
 J. Witte,  A. Yamada,  Jun Yang,  K. Yao,  S. Yeganeh,  S. R. Yost,  
 Zhi-Qiang You,  A. Zech,  Igor Ying Zhang,  Xing Zhang,  Yan Zhao,  
 Ying Zhu,  B. R. Brooks,  G. K. L. Chan,  C. J. Cramer,  M. S. Gordon,  
 W. J. Hehre,  A. Klamt,  M. W. Schmidt,  C. D. Sherrill,  D. G. Truhlar,  
 A. Aspuru-Guzik,  R. Baer,  A. T. Bell,  N. A. Besley,  Jeng-Da Chai,  
 A. E. DePrince, III,  R. A. DiStasio Jr.,  A. Dreuw,  B. D. Dunietz,  
 T. R. Furlani,  Chao-Ping Hsu,  Yousung Jung,  Jing Kong,  D. S. Lambrecht,  
 WanZhen Liang,  C. Ochsenfeld,  V. A. Rassolov,  L. V. Slipchenko,  
 J. E. Subotnik,  T. Van Voorhis,  J. M. Herbert,  A. I. Krylov,  
 P. M. W. Gill,  M. Head-Gordon

 Contributors to earlier versions of Q-Chem not listed above: 
 R. D. Adamson,  B. Austin,  J. Baker,  G. J. O. Beran,  K. Brandhorst,  
 S. T. Brown,  E. F. C. Byrd,  A. K. Chakraborty,  C.-L. Cheng,  
 Siu Hung Chien,  D. M. Chipman,  D. L. Crittenden,  H. Dachsel,  
 R. J. Doerksen,  A. D. Dutoi,  L. Fusti-Molnar,  W. A. Goddard III,  
 A. Golubeva-Zadorozhnaya,  S. R. Gwaltney,  G. Hawkins,  A. Heyden,  
 S. Hirata,  G. Kedziora,  F. J. Keil,  C. Kelley,  Jihan Kim,  R. A. King,  
 R. Z. Khaliullin,  P. P. Korambath,  W. Kurlancheek,  A. M. Lee,  M. S. Lee,  
 S. V. Levchenko,  Ching Yeh Lin,  D. Liotard,  R. C. Lochan,  I. Lotan,  
 P. E. Maslen,  N. Nair,  D. P. O'Neill,  D. Neuhauser,  E. Neuscamman,  
 C. M. Oana,  R. Olson,  B. Peters,  R. Peverati,  P. A. Pieniazek,  
 Y. M. Rhee,  J. Ritchie,  M. A. Rohrdanz,  E. Rosta,  N. J. Russ,  
 H. F. Schaefer III,  N. E. Schultz,  N. Shenvi,  A. C. Simmonett,  A. Sodt,  
 D. Stuck,  K. S. Thanthiriwatte,  V. Vanovschi,  Tao Wang,  A. Warshel,  
 C. F. Williams,  Q. Wu,  X. Xu,  W. Zhang

 Please cite Q-Chem as follows:
 Y. Shao et al., Mol. Phys. 113, 184-215 (2015)
 DOI: 10.1080/00268976.2014.952696

 Q-Chem 5.2.1 for Intel X86 EM64T Linux

 Parts of Q-Chem use Armadillo 8.300.2 (Tropical Shenanigans).
 http://arma.sourceforge.net/

 Q-Chem begins on Mon Feb  7 12:12:32 2022  

Host: 
0

     Scratch files written to /gpfs/fs0/scratch/a/aspuru/rhickman/descriptor_computation/qchem21235//
 Jul1719 |scratch|qcdevops|jenkins|workspace|build_RNUM -1
Processing $rem in /scinet/niagara/software/commercial/qc52/config/preferences:
	 MEM_TOTAL  4000 
NAlpha2: 132
NElect   132
Mult     1

Checking the input file for inconsistencies... 	...done.

--------------------------------------------------------------
User input:
--------------------------------------------------------------
$molecule
0 1
C         5.05309994220000   -2.53645654430000   -0.35143760280000
C         4.48413829280000   -1.54070304360000    0.31740877480000
C         3.23992889600000   -0.86122036870000   -0.02133489090000
C         2.42894266490000   -1.23781709520000   -1.09278892360000
C         1.24934224390000   -0.56963807790000   -1.34250841330000
C         0.84639197670000    0.50711224970000   -0.55910774280000
O        -0.34742782790000    1.11909848970000   -0.88538783560000
C        -1.38288648220000    1.00544912400000    0.07025840730000
C        -1.94997784770000   -0.43005569930000    0.11597747250000
C        -2.70110658340000   -0.78718802930000   -1.17300580560000
C        -4.07905478860000   -0.12985582780000   -1.21686031000000
C        -4.83233568320000   -0.46249650700000    0.06791003320000
C        -3.99089459140000   -0.02995313580000    1.26703826510000
O        -2.72320044910000   -0.65367049780000    1.27819802500000
C         1.66685734880000    0.93923354000000    0.49405169920000
C         1.39571130310000    2.12286044330000    1.31168532430000
C         0.81085036200000    3.23251296310000    0.88105259250000
C         2.83123235340000    0.22172693570000    0.75234550120000
H         5.97950044530000   -2.97414117740000   -0.02116397050000
H         4.62963374760000   -2.95446240440000   -1.24838047600000
H         4.97108323760000   -1.16509464790000    1.20946733880000
H         2.70819235110000   -2.06816278120000   -1.72165081410000
H         0.61016920150000   -0.87293545870000   -2.15824777130000
H        -2.13983884090000    1.72379097970000   -0.25025028020000
H        -1.03627250790000    1.27472595430000    1.07534267560000
H        -1.09355520520000   -1.10769243570000    0.23494547340000
H        -2.82213589510000   -1.87161922320000   -1.21625009380000
H        -2.09631814950000   -0.46969921560000   -2.02315437570000
H        -4.63199263930000   -0.48902387080000   -2.08680610290000
H        -3.97749224070000    0.95330438300000   -1.31146465110000
H        -5.00203052980000   -1.53953362490000    0.12342885290000
H        -5.79776229660000    0.04406148110000    0.09776811700000
H        -4.46078314260000   -0.33509207270000    2.20505328170000
H        -3.88196751840000    1.06422744590000    1.27147176370000
H         1.77790162350000    2.07375204770000    2.32484478840000
H         0.45102442730000    3.32916544020000   -0.12899608640000
H         0.67798232030000    4.08533466620000    1.52551355680000
H         3.45648375400000    0.54249330980000    1.57499722350000
$end

$rem
BASIS = 6-31G*
GUI = 2
METHOD = B3LYP
PRINT_ORBITALS false
MOLDEN_FORMAT false
--------------------------------------------------------------
 ----------------------------------------------------------------
             Standard Nuclear Orientation (Angstroms)
    I     Atom           X                Y                Z
 ----------------------------------------------------------------
    1      C       5.3342926013    -1.9554150825     0.4945992841
    2      C       4.6616155288    -0.8365471914     0.7359249310
    3      C       3.3554192984    -0.4717313317     0.2018258803
    4      C       2.5934877437    -1.3193867509    -0.6034555002
    5      C       1.3522582535    -0.9232911213    -1.0537196238
    6      C       0.8356934061     0.3311003546    -0.7452725780
    7      O      -0.4134490614     0.6441518047    -1.2431013321
    8      C      -1.4365129448     0.8187341607    -0.2833035221
    9      C      -1.8518608987    -0.5286292185     0.3463431638
   10      C      -2.5551407681    -1.4389780341    -0.6684859988
   11      C      -3.9935961286    -0.9904234012    -0.9182759391
   12      C      -4.7150115350    -0.8577338574     0.4198832661
   13      C      -3.9292610071     0.0945950879     1.3191557962
   14      O      -2.6037795395    -0.3469712218     1.5296656523
   15      C       1.6013885106     1.2231040567     0.0209372164
   16      C       1.2046489454     2.6014542045     0.3137958115
   17      C       0.5100905730     3.3866282868    -0.4985624300
   18      C       2.8325472139     0.7839020752     0.4991112783
   19      H       6.2993598233    -2.1337977937     0.9369693416
   20      H       4.9611683972    -2.7339458746    -0.1482281958
   21      H       5.1022988482    -0.0924781970     1.3887074915
   22      H       2.9606519621    -2.2995970201    -0.8628777189
   23      H       0.7522699448    -1.5858927881    -1.6594714211
   24      H      -2.2622141602     1.2736591502    -0.8337383236
   25      H      -1.1249618699     1.4969232534     0.5203388903
   26      H      -0.9303965045    -1.0166632291     0.6920755013
   27      H      -2.5627936910    -2.4577723083    -0.2754098782
   28      H      -1.9821148106    -1.4275502687    -1.5962960256
   29      H      -4.5017364679    -1.7171350384    -1.5548536833
   30      H      -4.0044522208    -0.0293615377    -1.4366804284
   31      H      -4.7723500869    -1.8353386755     0.9024687443
   32      H      -5.7279210868    -0.4774326025     0.2823105880
   33      H      -4.3698572151     0.1424174133     2.3178375269
   34      H      -3.9344533509     1.1057166574     0.8870422467
   35      H       1.5845700629     2.9956863389     1.2493246159
   36      H       0.1474645286     3.0392040303    -1.4508299745
   37      H       0.2861030839     4.4077836289    -0.2390242243
   38      H       3.4168408665     1.4638367739     1.1048141509
 ----------------------------------------------------------------
 Molecular Point Group                 C1    NOp =  1
 Largest Abelian Subgroup              C1    NOp =  1
 Nuclear Repulsion Energy =        1302.68869086 hartrees
 There are       66 alpha and       66 beta electrons
 Requested basis set is 6-31G(d)
 There are 112 shells and 310 basis functions

 Total QAlloc Memory Limit   4000 MB
 Mega-Array Size       188 MB
 MEM_STATIC part       192 MB
 A cutoff of  1.0D-08 yielded   3509 shell pairs
 There are     28886 function pairs
 Smallest overlap matrix eigenvalue = 3.24E-04

 Scale SEOQF with 1.000000e-02/1.000000e-01/1.000000e-01

 Standard Electronic Orientation quadrupole field applied
 Nucleus-field energy     =     0.0000000137 hartrees
 Guess from superposition of atomic densities
 Warning:  Energy on first SCF cycle will be non-variational
 SAD guess density has 132.000000 electrons

 -----------------------------------------------------------------------
  General SCF calculation program by
  Eric Jon Sundstrom, Paul Horn, Yuezhi Mao, Dmitri Zuev, Alec White,
  David Stuck, Shaama M.S., Shane Yost, Joonho Lee, David Small,
  Daniel Levine, Susi Lehtola, Hugh Burton, Evgeny Epifanovsky,
  Bang C. Huynh
 -----------------------------------------------------------------------
 Exchange:     0.2000 Hartree-Fock + 0.0800 Slater + 0.7200 B88
 Correlation:  0.1900 VWN1RPA + 0.8100 LYP
 Using SG-1 standard quadrature grid
 A restricted SCF calculation will be
 performed using DIIS
 SCF converges when DIIS error is below 1.0e-05
 ---------------------------------------
  Cycle       Energy         DIIS error
 ---------------------------------------
    1    -776.1138620839      4.56e-02  
    2    -771.8586945722      4.63e-03  
    3    -771.8424629776      4.89e-03  
    4    -772.1189047487      9.35e-04  
    5    -772.1277247296      3.81e-04  
    6    -772.1294844707      1.15e-04  
    7    -772.1296329803      3.77e-05  
    8    -772.1296478899      1.19e-05  
    9    -772.1296495196      1.87e-06  Convergence criterion met
 ---------------------------------------
 SCF time:   CPU 74.73s  wall 78.00s 
 SCF   energy in the final basis set =     -772.1296495196
 Total energy in the final basis set =     -772.1296495196
 
 --------------------------------------------------------------
 
                    Orbital Energies (a.u.)
 --------------------------------------------------------------
 
 Alpha MOs
 -- Occupied --
-19.1660 -19.1412 -10.2423 -10.2269 -10.2264 -10.2249 -10.1962 -10.1928
-10.1908 -10.1889 -10.1887 -10.1886 -10.1861 -10.1809 -10.1787 -10.1776
-10.1776 -10.1756  -1.0570  -1.0314  -0.8659  -0.8041  -0.7991  -0.7831
 -0.7707  -0.7373  -0.7247  -0.6872  -0.6381  -0.6365  -0.6167  -0.6083
 -0.5881  -0.5550  -0.5321  -0.5139  -0.5059  -0.4928  -0.4821  -0.4732
 -0.4647  -0.4550  -0.4420  -0.4326  -0.4308  -0.4275  -0.4181  -0.4150
 -0.3927  -0.3815  -0.3782  -0.3751  -0.3703  -0.3651  -0.3522  -0.3443
 -0.3409  -0.3349  -0.3208  -0.3109  -0.2926  -0.2800  -0.2718  -0.2420
 -0.2340  -0.2103
 -- Virtual --
 -0.0353  -0.0132   0.0301   0.0784   0.0890   0.0970   0.1045   0.1102
  0.1140   0.1276   0.1286   0.1384   0.1465   0.1502   0.1566   0.1676
  0.1719   0.1782   0.1842   0.1863   0.1885   0.1927   0.1991   0.2088
  0.2161   0.2198   0.2341   0.2453   0.2520   0.2547   0.2628   0.2722
  0.2918   0.2935   0.3071   0.3182   0.3309   0.3487   0.3591   0.3698
  0.3949   0.4368   0.4797   0.4962   0.5108   0.5126   0.5170   0.5218
  0.5326   0.5381   0.5470   0.5570   0.5582   0.5634   0.5755   0.5830
  0.5850   0.5917   0.5991   0.6022   0.6088   0.6112   0.6309   0.6321
  0.6389   0.6416   0.6462   0.6521   0.6724   0.6798   0.6881   0.7075
  0.7114   0.7187   0.7498   0.7553   0.7674   0.7836   0.8010   0.8087
  0.8216   0.8257   0.8299   0.8440   0.8524   0.8556   0.8670   0.8707
  0.8796   0.8859   0.8874   0.8932   0.9013   0.9161   0.9209   0.9303
  0.9432   0.9476   0.9609   0.9656   0.9684   0.9802   0.9842   0.9948
  1.0064   1.0126   1.0255   1.0519   1.0590   1.0770   1.0830   1.0949
  1.1237   1.1351   1.1575   1.1697   1.1906   1.1972   1.2123   1.2337
  1.2521   1.2791   1.2891   1.3091   1.3270   1.3337   1.3459   1.3512
  1.3643   1.4122   1.4315   1.4548   1.4735   1.4792   1.4857   1.5100
  1.5167   1.5211   1.5406   1.5580   1.5780   1.5936   1.6226   1.6653
  1.6796   1.6990   1.7092   1.7339   1.7444   1.7635   1.7777   1.8037
  1.8082   1.8189   1.8393   1.8667   1.8681   1.9003   1.9215   1.9286
  1.9380   1.9474   1.9566   1.9615   1.9760   1.9819   1.9884   2.0022
  2.0134   2.0264   2.0413   2.0628   2.0812   2.1099   2.1176   2.1255
  2.1419   2.1459   2.1511   2.1755   2.1864   2.2021   2.2161   2.2328
  2.2537   2.2713   2.2878   2.3049   2.3145   2.3225   2.3404   2.3441
  2.3743   2.3773   2.3920   2.4249   2.4316   2.4430   2.4690   2.4859
  2.5280   2.5588   2.5719   2.5811   2.6108   2.6266   2.6546   2.6676
  2.6873   2.6928   2.7100   2.7209   2.7381   2.7530   2.7784   2.8209
  2.8454   2.9003   2.9190   2.9441   2.9628   3.0133   3.0909   3.1340
  3.2668   3.4699   4.0112   4.0941   4.1215   4.1392   4.1494   4.1707
  4.1956   4.2314   4.2496   4.2824   4.3444   4.3581   4.4523   4.5230
  4.5476   4.5787   4.6368   4.8267
 --------------------------------------------------------------
 
          Ground-State Mulliken Net Atomic Charges

     Atom                 Charge (a.u.)
  ----------------------------------------
      1 C                    -0.355901
      2 C                    -0.112086
      3 C                     0.193372
      4 C                    -0.191286
      5 C                    -0.165259
      6 C                     0.281194
      7 O                    -0.538519
      8 C                    -0.069500
      9 C                     0.120095
     10 C                    -0.281804
     11 C                    -0.278184
     12 C                    -0.270740
     13 C                    -0.032322
     14 O                    -0.479265
     15 C                     0.159141
     16 C                    -0.148158
     17 C                    -0.331844
     18 C                    -0.288504
     19 H                     0.143655
     20 H                     0.141230
     21 H                     0.126547
     22 H                     0.130133
     23 H                     0.138068
     24 H                     0.141833
     25 H                     0.158256
     26 H                     0.142643
     27 H                     0.138089
     28 H                     0.150247
     29 H                     0.138854
     30 H                     0.134813
     31 H                     0.142201
     32 H                     0.132547
     33 H                     0.143354
     34 H                     0.118477
     35 H                     0.134104
     36 H                     0.165114
     37 H                     0.140480
     38 H                     0.128926
  ----------------------------------------
  Sum of atomic charges =     0.000000

 -----------------------------------------------------------------
                    Cartesian Multipole Moments
 -----------------------------------------------------------------
    Charge (ESU x 10^10)
                 0.0000
    Dipole Moment (Debye)
         X      -0.8547      Y       0.0939      Z      -0.1268
       Tot       0.8691
    Quadrupole Moments (Debye-Ang)
        XX     -98.0320     XY      -2.0068     YY    -101.3949
        XZ       4.6382     YZ       4.6717     ZZ    -111.4827
    Octopole Moments (Debye-Ang^2)
       XXX     -38.6393    XXY      -7.0703    XYY      -2.2541
       YYY       3.9828    XXZ      19.3185    XYZ       8.4505
       YYZ      -1.8353    XZZ      -5.0083    YZZ       3.0511
       ZZZ      -0.0708
    Hexadecapole Moments (Debye-Ang^3)
      XXXX   -5744.6882   XXXY     -57.8867   XXYY   -1206.5266
      XYYY     -22.2523   YYYY   -1402.2614   XXXZ      65.3990
      XXYZ      26.3747   XYYZ      -1.6781   YYYZ      17.6357
      XXZZ   -1095.6462   XYZZ       8.3110   YYZZ    -335.1580
      XZZZ     -12.0966   YZZZ       6.7042   ZZZZ    -571.0988
 -----------------------------------------------------------------
Archival summary:
1\1\nia1977.scinet.local\SP\ProcedureUnspecified\6-31G*\21620\rhickman\MonFeb712:13:512022MonFeb712:13:512022\0\\#,ProcedureUnspecified,6-31G*,\\0,1\O\C,1,1.38065\C,2,1.39121,1,117.415\H,3,1.0798,2,118.122,1,-0.250485,0\C,3,1.37851,2,121.399,1,179.778,0\H,5,1.07839,3,119.286,2,179.993,0\C,5,1.39554,3,120.368,2,1.27704,0\C,7,1.39226,5,117.773,3,-1.5536,0\H,8,1.08194,7,118.914,5,-178.735,0\C,8,1.39187,7,122.917,5,-0.547545,0\C,1,1.41363,2,115.974,3,114.343,0\H,11,1.09166,1,104.864,2,167.49,0\H,11,1.09674,1,111.61,2,49.5445,0\C,7,1.45757,5,123.277,3,178.656,0\H,14,1.0835,7,114.417,5,-176.741,0\C,14,1.32763,7,126.754,5,3.64091,0\H,16,1.07636,14,122.853,7,0.0317473,0\H,16,1.07651,14,121.277,7,179.863,0\C,10,1.4639,8,117.911,7,-175.267,0\H,19,1.08396,10,114.842,8,-30.8546,0\C,19,1.32621,10,125.228,8,144.888,0\H,21,1.07658,19,121.814,10,2.2538,0\H,21,1.07717,19,121.505,10,-177.367,0\C,11,1.54414,1,111.331,2,-71.8518,0\H,24,1.09855,11,106.879,1,51.5846,0\O,24,1.41373,11,111.855,1,164.644,0\C,26,1.41287,24,114.483,11,73.8195,0\H,27,1.0926,26,104.821,24,177.81,0\H,27,1.0996,26,110.51,24,-65.5019,0\C,27,1.52742,26,112.053,24,57.3633,0\H,30,1.09066,27,109.549,26,-179.818,0\H,30,1.09174,27,108.97,26,61.4793,0\C,30,1.52601,27,109.105,26,-58.0909,0\H,33,1.09158,30,110.439,27,176.312,0\H,33,1.09202,30,109.576,27,-65.1763,0\C,33,1.52733,30,109.108,27,55.5705,0\H,36,1.09056,33,110.649,30,-173.258,0\H,36,1.09202,33,109.042,30,67.3036,0\\\@

 Total job time:  78.86s(wall), 75.02s(cpu) 
 Mon Feb  7 12:13:51 2022

        *************************************************************
        *                                                           *
        *  Thank you very much for using Q-Chem.  Have a nice day.  *
        *                                                           *
        *************************************************************


