
Running Job 1 of 1 fragments/C086/conf-4/spe_input.inp
qchem fragments/C086/conf-4/spe_input.inp_115036.0 /gpfs/fs0/scratch/a/aspuru/rhickman/descriptor_computation/qchem115036/ 0
/scinet/niagara/software/commercial/qc52/exe/qcprog.exe_s fragments/C086/conf-4/spe_input.inp_115036.0 /gpfs/fs0/scratch/a/aspuru/rhickman/descriptor_computation/qchem115036/
                  Welcome to Q-Chem
     A Quantum Leap Into The Future Of Chemistry


 Q-Chem 5.2, Q-Chem, Inc., Pleasanton, CA (2019)

 License issued to: SRG Alan Aspuru-Guzik, University of Toronto

 Yihan Shao,  Zhengting Gan,  E. Epifanovsky,  A. T. B. Gilbert,  M. Wormit,  
 J. Kussmann,  A. W. Lange,  A. Behn,  Jia Deng,  Xintian Feng,  D. Ghosh,  
 M. Goldey,  P. R. Horn,  L. D. Jacobson,  I. Kaliman,  T. Kus,  A. Landau,  
 Jie Liu,  E. I. Proynov,  R. M. Richard,  R. P. Steele,  E. J. Sundstrom,  
 H. L. Woodcock III,  P. M. Zimmerman,  D. Zuev,  B. Albrecht,  E. Alguire,  
 S. A. Baeppler,  D. Barton,  Z. Benda,  Y. A. Bernard,  E. J. Berquist,  
 K. B. Bravaya,  H. Burton,  D. Casanova,  Chun-Min Chang,  Yunqing Chen,  
 A. Chien,  K. D. Closser,  M. P. Coons,  S. Coriani,  S. Dasgupta,  
 A. L. Dempwolff,  M. Diedenhofen,  Hainam Do,  R. G. Edgar,  Po-Tung Fang,  
 S. Faraji,  S. Fatehi,  Qingguo Feng,  K. D. Fenk,  J. Fosso-Tande,  
 J. Gayvert,  Qinghui Ge,  A. Ghysels,  G. Gidofalvi,  J. Gomes,  
 J. Gonthier,  A. Gunina,  D. Hait,  M. W. D. Hanson-Heine,  
 P. H. P. Harbach,  A. W. Hauser,  M. F. Herbst,  J. E. Herr,  
 E. G. Hohenstein,  Z. C. Holden,  Kerwin Hui,  B. C. Huynh,  T.-C. Jagau,  
 Hyunjun Ji,  B. Kaduk,  K. Khistyaev,  Jaehoon Kim,  P. Klunzinger,  K. Koh,  
 D. Kosenkov,  L. Koulias,  T. Kowalczyk,  C. M. Krauter,  A. Kunitsa,  
 Ka Un Lao,  A. Laurent,  K. V. Lawler,  Joonho Lee,  D. Lefrancois,  
 S. Lehtola,  D. S. Levine,  Yi-Pei Li,  You-Sheng Lin,  Fenglai Liu,  
 E. Livshits,  A. Luenser,  P. Manohar,  E. Mansoor,  S. F. Manzer,  
 Shan-Ping Mao,  Yuezhi Mao,  N. Mardirossian,  A. V. Marenich,  
 T. Markovich,  L. A. Martinez-Martinez,  S. A. Maurer,  N. J. Mayhall,  
 S. C. McKenzie,  J.-M. Mewes,  P. Morgante,  A. F. Morrison,  
 J. W. Mullinax,  K. Nanda,  T. S. Nguyen-Beck,  R. Olivares-Amaya,  
 J. A. Parkhill,  Zheng Pei,  T. M. Perrine,  F. Plasser,  P. Pokhilko,  
 S. Prager,  A. Prociuk,  E. Ramos,  D. R. Rehn,  F. Rob,  M. Scheurer,  
 M. Schneider,  N. Sergueev,  S. M. Sharada,  S. Sharma,  D. W. Small,  
 T. Stauch,  T. Stein,  Yu-Chuan Su,  A. J. W. Thom,  A. Tkatchenko,  
 T. Tsuchimochi,  N. M. Tubman,  L. Vogt,  M. L. Vidal,  O. Vydrov,  
 M. A. Watson,  J. Wenzel,  M. de Wergifosse,  T. A. Wesolowski,  A. White,  
 J. Witte,  A. Yamada,  Jun Yang,  K. Yao,  S. Yeganeh,  S. R. Yost,  
 Zhi-Qiang You,  A. Zech,  Igor Ying Zhang,  Xing Zhang,  Yan Zhao,  
 Ying Zhu,  B. R. Brooks,  G. K. L. Chan,  C. J. Cramer,  M. S. Gordon,  
 W. J. Hehre,  A. Klamt,  M. W. Schmidt,  C. D. Sherrill,  D. G. Truhlar,  
 A. Aspuru-Guzik,  R. Baer,  A. T. Bell,  N. A. Besley,  Jeng-Da Chai,  
 A. E. DePrince, III,  R. A. DiStasio Jr.,  A. Dreuw,  B. D. Dunietz,  
 T. R. Furlani,  Chao-Ping Hsu,  Yousung Jung,  Jing Kong,  D. S. Lambrecht,  
 WanZhen Liang,  C. Ochsenfeld,  V. A. Rassolov,  L. V. Slipchenko,  
 J. E. Subotnik,  T. Van Voorhis,  J. M. Herbert,  A. I. Krylov,  
 P. M. W. Gill,  M. Head-Gordon

 Contributors to earlier versions of Q-Chem not listed above: 
 R. D. Adamson,  B. Austin,  J. Baker,  G. J. O. Beran,  K. Brandhorst,  
 S. T. Brown,  E. F. C. Byrd,  A. K. Chakraborty,  C.-L. Cheng,  
 Siu Hung Chien,  D. M. Chipman,  D. L. Crittenden,  H. Dachsel,  
 R. J. Doerksen,  A. D. Dutoi,  L. Fusti-Molnar,  W. A. Goddard III,  
 A. Golubeva-Zadorozhnaya,  S. R. Gwaltney,  G. Hawkins,  A. Heyden,  
 S. Hirata,  G. Kedziora,  F. J. Keil,  C. Kelley,  Jihan Kim,  R. A. King,  
 R. Z. Khaliullin,  P. P. Korambath,  W. Kurlancheek,  A. M. Lee,  M. S. Lee,  
 S. V. Levchenko,  Ching Yeh Lin,  D. Liotard,  R. C. Lochan,  I. Lotan,  
 P. E. Maslen,  N. Nair,  D. P. O'Neill,  D. Neuhauser,  E. Neuscamman,  
 C. M. Oana,  R. Olson,  B. Peters,  R. Peverati,  P. A. Pieniazek,  
 Y. M. Rhee,  J. Ritchie,  M. A. Rohrdanz,  E. Rosta,  N. J. Russ,  
 H. F. Schaefer III,  N. E. Schultz,  N. Shenvi,  A. C. Simmonett,  A. Sodt,  
 D. Stuck,  K. S. Thanthiriwatte,  V. Vanovschi,  Tao Wang,  A. Warshel,  
 C. F. Williams,  Q. Wu,  X. Xu,  W. Zhang

 Please cite Q-Chem as follows:
 Y. Shao et al., Mol. Phys. 113, 184-215 (2015)
 DOI: 10.1080/00268976.2014.952696

 Q-Chem 5.2.1 for Intel X86 EM64T Linux

 Parts of Q-Chem use Armadillo 8.300.2 (Tropical Shenanigans).
 http://arma.sourceforge.net/

 Q-Chem begins on Mon Feb  7 15:43:23 2022  

Host: 
0

     Scratch files written to /gpfs/fs0/scratch/a/aspuru/rhickman/descriptor_computation/qchem115036//
 Jul1719 |scratch|qcdevops|jenkins|workspace|build_RNUM -1
Processing $rem in /scinet/niagara/software/commercial/qc52/config/preferences:
	 MEM_TOTAL  4000 
NAlpha2: 120
NElect   120
Mult     1

Checking the input file for inconsistencies... 	...done.

--------------------------------------------------------------
User input:
--------------------------------------------------------------
$molecule
0 1
C        -3.00558476450000   -3.05967765650000    0.12184882430000
C        -1.87770186760000   -2.51036689760000    0.56395266510000
C        -1.50983980200000   -1.13229669220000    0.39530070220000
C        -0.36348426680000   -0.52346509130000    0.83616839400000
C        -0.25860449870000    0.84420123070000    0.51513095100000
C         0.94762869330000    1.64151630160000    0.90035787070000
C         1.97074940440000    1.71411064700000   -0.24366265200000
C         2.52139895620000    0.34858828090000   -0.65585267150000
C         3.45924726180000   -0.26505382940000    0.38193763870000
C         3.99693857630000   -1.63313459980000   -0.04080545530000
C         2.94393996380000   -2.73373489580000    0.02681331010000
C        -1.35575314090000    1.29931805510000   -0.18720844890000
C        -1.73712729270000    2.58603769200000   -0.70850609960000
C        -1.01570543990000    3.70176019640000   -0.79528093080000
S        -2.51168948730000    0.01324048840000   -0.43551404910000
H        -3.22781362110000   -4.10035995390000    0.27728113370000
H        -3.74045825780000   -2.47837349310000   -0.41044911570000
H        -1.14841794060000   -3.10833935900000    1.09660623760000
H         0.39298556040000   -1.05363675090000    1.38875230190000
H         1.41172031720000    1.17592133840000    1.77125792570000
H         0.64983582470000    2.65156227380000    1.18663949260000
H         2.79680419910000    2.36095589720000    0.06233281600000
H         1.49119627450000    2.16771036120000   -1.11373583350000
H         3.07178285170000    0.46504007210000   -1.59299955940000
H         1.68479088500000   -0.32428840180000   -0.84807350620000
H         2.94401286030000   -0.37246866930000    1.33805649190000
H         4.30097479590000    0.41513075840000    0.53685623520000
H         4.82747600930000   -1.90323199370000    0.61614949270000
H         4.38937139290000   -1.56745048320000   -1.05812283640000
H         2.55587698630000   -2.82630310210000    1.03946786700000
H         3.37738710630000   -3.68958548720000   -0.25888323510000
H         2.11316033980000   -2.52563950730000   -0.64266513190000
H        -2.75574489600000    2.60690179870000   -1.07928500130000
H         0.00747764850000    3.77778400240000   -0.47934239660000
H        -1.44992260190000    4.59697233600000   -1.20672689650000
$end

$rem
BASIS = 6-31G*
GUI = 2
METHOD = B3LYP
PRINT_ORBITALS false
MOLDEN_FORMAT false
--------------------------------------------------------------
 ----------------------------------------------------------------
             Standard Nuclear Orientation (Angstroms)
    I     Atom           X                Y                Z
 ----------------------------------------------------------------
    1      C       2.4303735325     3.6031291698    -0.1635323046
    2      C       1.4128608418     2.8899033528     0.3111199927
    3      C       1.3338049980     1.4558742631     0.2987015309
    4      C       0.3100464483     0.6808637681     0.7787519633
    5      C       0.4939793832    -0.7068657085     0.6207913693
    6      C      -0.5483305702    -1.6835888476     1.0665620347
    7      C      -1.4785269397    -2.0890781353    -0.0871892542
    8      C      -2.2672179009    -0.9180114078    -0.6739908909
    9      C      -3.3584895754    -0.3947535366     0.2579169074
   10      C      -4.1344749610     0.7802446837    -0.3393221830
   11      C      -3.3247600089     2.0716471896    -0.3759370834
   12      C       1.6931104894    -1.0061702291     0.0070744202
   13      C       2.3470363315    -2.2391444106    -0.3464797754
   14      C       1.8658696491    -3.4803138661    -0.3183182051
   15      S       2.5826508824     0.4512058722    -0.3625372735
   16      H       2.4342730981     4.6779639151    -0.1277611543
   17      H       3.2913400176     3.1267606845    -0.6029688258
   18      H       0.5540506860     3.3836594226     0.7490651935
   19      H      -0.5629565795     1.1053820835     1.2438621401
   20      H      -1.1381996791    -1.2271674612     1.8630295880
   21      H      -0.0712324008    -2.5740365742     1.4792493357
   22      H      -2.1744775838    -2.8513410943     0.2719992899
   23      H      -0.8759361491    -2.5306084229    -0.8838614518
   24      H      -2.7362592957    -1.2474030940    -1.6047051481
   25      H      -1.5717588973    -0.1155711894    -0.9230921040
   26      H      -2.9230160856    -0.0791454214     1.2076126772
   27      H      -4.0556546614    -1.2095084944     0.4707344075
   28      H      -5.0337338579     0.9484102853     0.2584976897
   29      H      -4.4549358042     0.5232436030    -1.3515019423
   30      H      -3.0136637674     2.3533990892     0.6282869925
   31      H      -3.9239649308     2.8819861190    -0.7851480013
   32      H      -2.4369070766     1.9624539543    -0.9935889810
   33      H       3.3668386404    -2.0947891062    -0.6850930113
   34      H       0.8635018791    -3.7259860974    -0.0226758241
   35      H       2.4885880243    -4.3094138693    -0.6082356265
 ----------------------------------------------------------------
 Molecular Point Group                 C1    NOp =  1
 Largest Abelian Subgroup              C1    NOp =  1
 Nuclear Repulsion Energy =        1088.63003475 hartrees
 There are       60 alpha and       60 beta electrons
 Requested basis set is 6-31G(d)
 There are 101 shells and 269 basis functions

 Total QAlloc Memory Limit   4000 MB
 Mega-Array Size       188 MB
 MEM_STATIC part       192 MB
 A cutoff of  1.0D-08 yielded   3182 shell pairs
 There are     23950 function pairs
 Smallest overlap matrix eigenvalue = 6.57E-04

 Scale SEOQF with 1.000000e-01/1.000000e-01/1.000000e-01

 Standard Electronic Orientation quadrupole field applied
 Nucleus-field energy     =     0.0000000527 hartrees
 Guess from superposition of atomic densities
 Warning:  Energy on first SCF cycle will be non-variational
 SAD guess density has 120.000000 electrons

 -----------------------------------------------------------------------
  General SCF calculation program by
  Eric Jon Sundstrom, Paul Horn, Yuezhi Mao, Dmitri Zuev, Alec White,
  David Stuck, Shaama M.S., Shane Yost, Joonho Lee, David Small,
  Daniel Levine, Susi Lehtola, Hugh Burton, Evgeny Epifanovsky,
  Bang C. Huynh
 -----------------------------------------------------------------------
 Exchange:     0.2000 Hartree-Fock + 0.0800 Slater + 0.7200 B88
 Correlation:  0.1900 VWN1RPA + 0.8100 LYP
 Using SG-1 standard quadrature grid
 A restricted SCF calculation will be
 performed using DIIS
 SCF converges when DIIS error is below 1.0e-05
 ---------------------------------------
  Cycle       Energy         DIIS error
 ---------------------------------------
    1    -946.8427208390      4.82e-02  
    2    -943.3728120335      5.54e-03  
    3    -943.2482772366      6.57e-03  
    4    -943.6629428362      1.34e-03  
    5    -943.6799249480      4.61e-04  
    6    -943.6818660271      1.35e-04  
    7    -943.6820228615      5.45e-05  
    8    -943.6820502963      1.53e-05  
    9    -943.6820523824      3.21e-06  Convergence criterion met
 ---------------------------------------
 SCF time:   CPU 60.95s  wall 61.00s 
 SCF   energy in the final basis set =     -943.6820523824
 Total energy in the final basis set =     -943.6820523824
 
 --------------------------------------------------------------
 
                    Orbital Energies (a.u.)
 --------------------------------------------------------------
 
 Alpha MOs
 -- Occupied --
-88.8990 -10.2158 -10.2150 -10.1980 -10.1972 -10.1922 -10.1863 -10.1852
-10.1810 -10.1803 -10.1784 -10.1751 -10.1736 -10.1711 -10.1685  -7.9611
 -5.9250  -5.9216  -5.9180  -0.8894  -0.8160  -0.8032  -0.7814  -0.7683
 -0.7364  -0.7126  -0.6880  -0.6491  -0.6225  -0.5939  -0.5890  -0.5624
 -0.5342  -0.5131  -0.4932  -0.4694  -0.4608  -0.4527  -0.4480  -0.4383
 -0.4292  -0.4156  -0.4027  -0.3976  -0.3893  -0.3799  -0.3743  -0.3658
 -0.3597  -0.3488  -0.3401  -0.3388  -0.3276  -0.3218  -0.3164  -0.3137
 -0.3054  -0.2688  -0.2448  -0.1971
 -- Virtual --
 -0.0501   0.0121   0.0258   0.0719   0.0823   0.0920   0.0962   0.1118
  0.1187   0.1221   0.1318   0.1368   0.1431   0.1497   0.1578   0.1701
  0.1712   0.1778   0.1821   0.1895   0.1974   0.2046   0.2084   0.2134
  0.2249   0.2411   0.2488   0.2573   0.2595   0.2650   0.2724   0.2810
  0.2920   0.3053   0.3216   0.3334   0.3477   0.3629   0.3672   0.4027
  0.4461   0.4614   0.4819   0.4898   0.4936   0.5169   0.5198   0.5358
  0.5366   0.5429   0.5497   0.5540   0.5687   0.5832   0.5909   0.6073
  0.6107   0.6202   0.6234   0.6406   0.6451   0.6554   0.6749   0.6771
  0.6819   0.6899   0.6957   0.7041   0.7145   0.7287   0.7525   0.7803
  0.7958   0.8012   0.8137   0.8272   0.8362   0.8466   0.8531   0.8588
  0.8710   0.8792   0.8821   0.8864   0.8892   0.8992   0.9031   0.9200
  0.9241   0.9336   0.9382   0.9461   0.9651   0.9715   0.9771   0.9799
  1.0013   1.0034   1.0064   1.0198   1.0306   1.0400   1.0490   1.0634
  1.0656   1.0737   1.1069   1.1111   1.1260   1.1533   1.1871   1.2247
  1.2690   1.2835   1.2977   1.3048   1.3475   1.3549   1.3831   1.3891
  1.4263   1.4477   1.4591   1.4749   1.4906   1.4996   1.5567   1.5653
  1.6021   1.6126   1.6280   1.6605   1.7046   1.7152   1.7490   1.7563
  1.7609   1.8008   1.8368   1.8460   1.8570   1.8699   1.8839   1.8963
  1.9340   1.9442   1.9795   1.9852   1.9998   2.0082   2.0129   2.0191
  2.0355   2.0587   2.0745   2.0873   2.1216   2.1302   2.1492   2.1777
  2.1896   2.2096   2.2295   2.2511   2.2640   2.2809   2.3124   2.3386
  2.3442   2.3611   2.3718   2.3806   2.4136   2.4258   2.4380   2.4824
  2.4894   2.5070   2.5159   2.5536   2.5714   2.6109   2.6346   2.6727
  2.7077   2.7209   2.7538   2.7889   2.8064   2.8773   2.9339   3.0157
  3.1147   3.2193   3.9743   4.0904   4.1201   4.1282   4.1602   4.1879
  4.2202   4.2464   4.3224   4.3801   4.4523   4.5059   4.5325   4.5723
  4.6697
 --------------------------------------------------------------
 
          Ground-State Mulliken Net Atomic Charges

     Atom                 Charge (a.u.)
  ----------------------------------------
      1 C                    -0.374242
      2 C                    -0.055872
      3 C                    -0.137736
      4 C                    -0.183848
      5 C                     0.179377
      6 C                    -0.360037
      7 C                    -0.259389
      8 C                    -0.266626
      9 C                    -0.252916
     10 C                    -0.249494
     11 C                    -0.449516
     12 C                    -0.192961
     13 C                    -0.088487
     14 C                    -0.355448
     15 S                     0.231040
     16 H                     0.146501
     17 H                     0.155684
     18 H                     0.138214
     19 H                     0.139998
     20 H                     0.146163
     21 H                     0.149936
     22 H                     0.128959
     23 H                     0.145214
     24 H                     0.129703
     25 H                     0.152792
     26 H                     0.125711
     27 H                     0.127592
     28 H                     0.129415
     29 H                     0.131722
     30 H                     0.137237
     31 H                     0.143456
     32 H                     0.154580
     33 H                     0.136315
     34 H                     0.152525
     35 H                     0.144440
  ----------------------------------------
  Sum of atomic charges =     0.000000

 -----------------------------------------------------------------
                    Cartesian Multipole Moments
 -----------------------------------------------------------------
    Charge (ESU x 10^10)
                -0.0000
    Dipole Moment (Debye)
         X      -0.9867      Y      -0.1600      Z       0.2728
       Tot       1.0362
    Quadrupole Moments (Debye-Ang)
        XX     -98.5167     XY      -0.5041     YY     -93.6172
        XZ      -2.8414     YZ       0.9782     ZZ    -102.2157
    Octopole Moments (Debye-Ang^2)
       XXX       4.9091    XXY      -3.4650    XYY       9.9716
       YYY       5.4994    XXZ     -10.5767    XYZ      -0.0620
       YYZ      -0.3931    XZZ      -8.0802    YZZ      -0.0724
       ZZZ      -0.0543
    Hexadecapole Moments (Debye-Ang^3)
      XXXX   -3396.1194   XXXY     -12.9940   XXYY    -927.9368
      XYYY      14.7083   YYYY   -2245.8045   XXXZ     -36.2028
      XXYZ       1.2076   XYYZ     -24.0693   YYYZ      12.1763
      XXZZ    -630.3900   XYZZ      -4.0152   YYZZ    -470.2194
      XZZZ      -0.3074   YZZZ      -1.5603   ZZZZ    -312.0921
 -----------------------------------------------------------------
Archival summary:
1\1\nia1977.scinet.local\SP\ProcedureUnspecified\6-31G*\11420\rhickman\MonFeb715:44:262022MonFeb715:44:262022\0\\#,ProcedureUnspecified,6-31G*,\\0,1\S\C,1,1.73384\C,2,1.37083,1,110.113\H,3,1.07642,2,122.278,1,179.231,0\C,3,1.40875,2,114.844,1,-0.500421,0\C,5,1.37991,3,112.148,2,0.210205,0\C,2,1.43626,1,122.833,3,-179.838,0\H,7,1.08312,2,114.52,1,179.499,0\C,7,1.33016,2,125.056,1,-0.403799,0\H,9,1.07544,7,121.79,2,179.958,0\H,9,1.07763,7,121.308,2,-0.0448511,0\C,6,1.43974,5,133.604,3,178.428,0\H,12,1.0842,6,112.948,5,-170.942,0\C,12,1.33147,6,128.975,5,9.62418,0\H,14,1.07355,12,123.819,6,0.950408,0\H,14,1.07668,12,120.207,6,-179.448,0\C,5,1.49637,3,121.241,2,-178.635,0\H,17,1.09116,5,108.722,3,-25.4879,0\H,17,1.09125,5,109.922,3,-142.977,0\C,17,1.5365,5,111.732,3,95.2799,0\H,20,1.09213,17,108.688,5,58.758,0\H,20,1.09289,17,108.832,5,176.155,0\C,20,1.52898,17,113.474,5,-61.8141,0\H,23,1.0907,20,108.798,17,51.794,0\H,23,1.09304,20,108.502,17,168.476,0\C,23,1.52746,20,113.376,17,-71.0044,0\H,26,1.09141,23,110.175,20,58.1141,0\H,26,1.09323,23,108.606,20,-59.3748,0\C,26,1.52953,23,112.792,20,179.732,0\H,29,1.09236,26,109.263,23,49.5937,0\H,29,1.09286,26,108.788,23,166.752,0\C,29,1.5247,26,112.993,23,-72.4977,0\H,32,1.08706,29,111.242,26,61.3642,0\H,32,1.08773,29,110.333,26,-178.643,0\H,32,1.08841,29,110.42,26,-59.1261,0\\\@

 Total job time:  62.95s(wall), 61.18s(cpu) 
 Mon Feb  7 15:44:26 2022

        *************************************************************
        *                                                           *
        *  Thank you very much for using Q-Chem.  Have a nice day.  *
        *                                                           *
        *************************************************************


