
Running Job 1 of 1 fragments/C011/conf-0/spe_input.inp
qchem fragments/C011/conf-0/spe_input.inp_247265.0 /gpfs/fs0/scratch/a/aspuru/rhickman/descriptor_computation/qchem247265/ 0
/scinet/niagara/software/commercial/qc52/exe/qcprog.exe_s fragments/C011/conf-0/spe_input.inp_247265.0 /gpfs/fs0/scratch/a/aspuru/rhickman/descriptor_computation/qchem247265/
                  Welcome to Q-Chem
     A Quantum Leap Into The Future Of Chemistry


 Q-Chem 5.2, Q-Chem, Inc., Pleasanton, CA (2019)

 License issued to: SRG Alan Aspuru-Guzik, University of Toronto

 Yihan Shao,  Zhengting Gan,  E. Epifanovsky,  A. T. B. Gilbert,  M. Wormit,  
 J. Kussmann,  A. W. Lange,  A. Behn,  Jia Deng,  Xintian Feng,  D. Ghosh,  
 M. Goldey,  P. R. Horn,  L. D. Jacobson,  I. Kaliman,  T. Kus,  A. Landau,  
 Jie Liu,  E. I. Proynov,  R. M. Richard,  R. P. Steele,  E. J. Sundstrom,  
 H. L. Woodcock III,  P. M. Zimmerman,  D. Zuev,  B. Albrecht,  E. Alguire,  
 S. A. Baeppler,  D. Barton,  Z. Benda,  Y. A. Bernard,  E. J. Berquist,  
 K. B. Bravaya,  H. Burton,  D. Casanova,  Chun-Min Chang,  Yunqing Chen,  
 A. Chien,  K. D. Closser,  M. P. Coons,  S. Coriani,  S. Dasgupta,  
 A. L. Dempwolff,  M. Diedenhofen,  Hainam Do,  R. G. Edgar,  Po-Tung Fang,  
 S. Faraji,  S. Fatehi,  Qingguo Feng,  K. D. Fenk,  J. Fosso-Tande,  
 J. Gayvert,  Qinghui Ge,  A. Ghysels,  G. Gidofalvi,  J. Gomes,  
 J. Gonthier,  A. Gunina,  D. Hait,  M. W. D. Hanson-Heine,  
 P. H. P. Harbach,  A. W. Hauser,  M. F. Herbst,  J. E. Herr,  
 E. G. Hohenstein,  Z. C. Holden,  Kerwin Hui,  B. C. Huynh,  T.-C. Jagau,  
 Hyunjun Ji,  B. Kaduk,  K. Khistyaev,  Jaehoon Kim,  P. Klunzinger,  K. Koh,  
 D. Kosenkov,  L. Koulias,  T. Kowalczyk,  C. M. Krauter,  A. Kunitsa,  
 Ka Un Lao,  A. Laurent,  K. V. Lawler,  Joonho Lee,  D. Lefrancois,  
 S. Lehtola,  D. S. Levine,  Yi-Pei Li,  You-Sheng Lin,  Fenglai Liu,  
 E. Livshits,  A. Luenser,  P. Manohar,  E. Mansoor,  S. F. Manzer,  
 Shan-Ping Mao,  Yuezhi Mao,  N. Mardirossian,  A. V. Marenich,  
 T. Markovich,  L. A. Martinez-Martinez,  S. A. Maurer,  N. J. Mayhall,  
 S. C. McKenzie,  J.-M. Mewes,  P. Morgante,  A. F. Morrison,  
 J. W. Mullinax,  K. Nanda,  T. S. Nguyen-Beck,  R. Olivares-Amaya,  
 J. A. Parkhill,  Zheng Pei,  T. M. Perrine,  F. Plasser,  P. Pokhilko,  
 S. Prager,  A. Prociuk,  E. Ramos,  D. R. Rehn,  F. Rob,  M. Scheurer,  
 M. Schneider,  N. Sergueev,  S. M. Sharada,  S. Sharma,  D. W. Small,  
 T. Stauch,  T. Stein,  Yu-Chuan Su,  A. J. W. Thom,  A. Tkatchenko,  
 T. Tsuchimochi,  N. M. Tubman,  L. Vogt,  M. L. Vidal,  O. Vydrov,  
 M. A. Watson,  J. Wenzel,  M. de Wergifosse,  T. A. Wesolowski,  A. White,  
 J. Witte,  A. Yamada,  Jun Yang,  K. Yao,  S. Yeganeh,  S. R. Yost,  
 Zhi-Qiang You,  A. Zech,  Igor Ying Zhang,  Xing Zhang,  Yan Zhao,  
 Ying Zhu,  B. R. Brooks,  G. K. L. Chan,  C. J. Cramer,  M. S. Gordon,  
 W. J. Hehre,  A. Klamt,  M. W. Schmidt,  C. D. Sherrill,  D. G. Truhlar,  
 A. Aspuru-Guzik,  R. Baer,  A. T. Bell,  N. A. Besley,  Jeng-Da Chai,  
 A. E. DePrince, III,  R. A. DiStasio Jr.,  A. Dreuw,  B. D. Dunietz,  
 T. R. Furlani,  Chao-Ping Hsu,  Yousung Jung,  Jing Kong,  D. S. Lambrecht,  
 WanZhen Liang,  C. Ochsenfeld,  V. A. Rassolov,  L. V. Slipchenko,  
 J. E. Subotnik,  T. Van Voorhis,  J. M. Herbert,  A. I. Krylov,  
 P. M. W. Gill,  M. Head-Gordon

 Contributors to earlier versions of Q-Chem not listed above: 
 R. D. Adamson,  B. Austin,  J. Baker,  G. J. O. Beran,  K. Brandhorst,  
 S. T. Brown,  E. F. C. Byrd,  A. K. Chakraborty,  C.-L. Cheng,  
 Siu Hung Chien,  D. M. Chipman,  D. L. Crittenden,  H. Dachsel,  
 R. J. Doerksen,  A. D. Dutoi,  L. Fusti-Molnar,  W. A. Goddard III,  
 A. Golubeva-Zadorozhnaya,  S. R. Gwaltney,  G. Hawkins,  A. Heyden,  
 S. Hirata,  G. Kedziora,  F. J. Keil,  C. Kelley,  Jihan Kim,  R. A. King,  
 R. Z. Khaliullin,  P. P. Korambath,  W. Kurlancheek,  A. M. Lee,  M. S. Lee,  
 S. V. Levchenko,  Ching Yeh Lin,  D. Liotard,  R. C. Lochan,  I. Lotan,  
 P. E. Maslen,  N. Nair,  D. P. O'Neill,  D. Neuhauser,  E. Neuscamman,  
 C. M. Oana,  R. Olson,  B. Peters,  R. Peverati,  P. A. Pieniazek,  
 Y. M. Rhee,  J. Ritchie,  M. A. Rohrdanz,  E. Rosta,  N. J. Russ,  
 H. F. Schaefer III,  N. E. Schultz,  N. Shenvi,  A. C. Simmonett,  A. Sodt,  
 D. Stuck,  K. S. Thanthiriwatte,  V. Vanovschi,  Tao Wang,  A. Warshel,  
 C. F. Williams,  Q. Wu,  X. Xu,  W. Zhang

 Please cite Q-Chem as follows:
 Y. Shao et al., Mol. Phys. 113, 184-215 (2015)
 DOI: 10.1080/00268976.2014.952696

 Q-Chem 5.2.1 for Intel X86 EM64T Linux

 Parts of Q-Chem use Armadillo 8.300.2 (Tropical Shenanigans).
 http://arma.sourceforge.net/

 Q-Chem begins on Mon Feb  7 08:19:17 2022  

Host: 
0

     Scratch files written to /gpfs/fs0/scratch/a/aspuru/rhickman/descriptor_computation/qchem247265//
 Jul1719 |scratch|qcdevops|jenkins|workspace|build_RNUM -1
Processing $rem in /scinet/niagara/software/commercial/qc52/config/preferences:
	 MEM_TOTAL  4000 
NAlpha2: 100
NElect   100
Mult     1

Checking the input file for inconsistencies... 	...done.

--------------------------------------------------------------
User input:
--------------------------------------------------------------
$molecule
0 1
C        -4.63093505700000    0.10704335710000   -0.00548961280000
C        -3.64082096480000   -0.78154603650000   -0.00210235770000
C        -2.24212242110000   -0.45664420270000    0.00071185240000
C        -1.19648237160000   -1.34536239150000    0.00165062800000
C         0.04487007430000   -0.69521816720000    0.00233925910000
S         1.69346507280000   -1.21130906620000    0.00143505970000
C         2.24211260840000    0.45661529060000    0.00052335470000
C         3.64080992840000    0.78156303950000   -0.00234159310000
C         4.63096156830000   -0.10698984660000   -0.00504196810000
C         1.19647569580000    1.34534436020000    0.00157234940000
C        -0.04487793450000    0.69520445290000    0.00238027680000
S        -1.69346249550000    1.21130085300000    0.00162880410000
H        -5.66264033380000   -0.19597051680000   -0.00795878110000
H        -4.43450199040000    1.16661785100000   -0.00590958270000
H        -3.85564374390000   -1.84273963590000   -0.00186928290000
H        -1.32341695830000   -2.41253909450000    0.00139600310000
H         3.85558271970000    1.84277101260000   -0.00269646290000
H         4.43456579580000   -1.16658386220000   -0.00493898220000
H         5.66265447970000    0.19606995490000   -0.00774131950000
H         1.32342379840000    2.41251809620000    0.00135253930000
$end

$rem
BASIS = 6-31G*
GUI = 2
METHOD = B3LYP
PRINT_ORBITALS false
MOLDEN_FORMAT false
--------------------------------------------------------------
 ----------------------------------------------------------------
             Standard Nuclear Orientation (Angstroms)
    I     Atom           X                Y                Z
 ----------------------------------------------------------------
    1      C       4.6296119177    -0.1539880159    -0.0053390876
    2      C       3.6485576852     0.7445940382    -0.0019649824
    3      C       2.2466370025     0.4338896659     0.0008510573
    4      C       1.2100609762     1.3331634276     0.0017765874
    5      C      -0.0378191672     0.6956380977     0.0024715144
    6      S      -1.6810970376     1.2284167653     0.0015578615
    7      C      -2.2466266499    -0.4338594070     0.0006667677
    8      C      -3.6485465655    -0.7446097779    -0.0021963498
    9      C      -4.6296387044     0.1539360725    -0.0049098744
   10      C      -1.2100538737    -1.3331439915     0.0017290081
   11      C       0.0378274080    -0.6956229710     0.0025306396
   12      S       1.6810947882    -1.2284070551     0.0017886205
   13      H       5.6643362835     0.1385502927    -0.0078104237
   14      H       4.4224464355    -1.2115165176    -0.0057457066
   15      H       3.8741283503     1.8035551153    -0.0017452483
   16      H       1.3478086266     2.3989983503     0.0015083959
   17      H      -3.8740673910    -1.8035857364    -0.0025378787
   18      H      -4.4225103160     1.2114844689    -0.0048202397
   19      H      -5.6643511630    -0.1386483535    -0.0076070574
   20      H      -1.3478150085    -2.3989758164     0.0015227646
 ----------------------------------------------------------------
 Molecular Point Group                 C1    NOp =  1
 Largest Abelian Subgroup              C1    NOp =  1
 Nuclear Repulsion Energy =         810.12968928 hartrees
 There are       50 alpha and       50 beta electrons
 Requested basis set is 6-31G(d)
 There are 66 shells and 204 basis functions

 Total QAlloc Memory Limit   4000 MB
 Mega-Array Size       188 MB
 MEM_STATIC part       192 MB
 A cutoff of  1.0D-08 yielded   1413 shell pairs
 There are     15200 function pairs
 Smallest overlap matrix eigenvalue = 8.57E-04

 Scale SEOQF with 1.000000e-02/1.000000e-01/1.000000e+00

 Standard Electronic Orientation quadrupole field applied
 Nucleus-field energy     =     0.0000000101 hartrees
 Guess from superposition of atomic densities
 Warning:  Energy on first SCF cycle will be non-variational
 SAD guess density has 100.000000 electrons

 -----------------------------------------------------------------------
  General SCF calculation program by
  Eric Jon Sundstrom, Paul Horn, Yuezhi Mao, Dmitri Zuev, Alec White,
  David Stuck, Shaama M.S., Shane Yost, Joonho Lee, David Small,
  Daniel Levine, Susi Lehtola, Hugh Burton, Evgeny Epifanovsky,
  Bang C. Huynh
 -----------------------------------------------------------------------
 Exchange:     0.2000 Hartree-Fock + 0.0800 Slater + 0.7200 B88
 Correlation:  0.1900 VWN1RPA + 0.8100 LYP
 Using SG-1 standard quadrature grid
 A restricted SCF calculation will be
 performed using DIIS
 SCF converges when DIIS error is below 1.0e-05
 ---------------------------------------
  Cycle       Energy         DIIS error
 ---------------------------------------
    1   -1185.2220464387      5.66e-02  
    2   -1182.0200770140      5.66e-03  
    3   -1181.9624933053      6.46e-03  
    4   -1182.1990565169      1.05e-03  
    5   -1182.2038616767      5.53e-04  
    6   -1182.2055433538      1.69e-04  
    7   -1182.2057107286      3.81e-05  
    8   -1182.2057175134      9.36e-06  Convergence criterion met
 ---------------------------------------
 SCF time:   CPU 25.92s  wall 26.00s 
 SCF   energy in the final basis set =    -1182.2057175134
 Total energy in the final basis set =    -1182.2057175134
 
 --------------------------------------------------------------
 
                    Orbital Energies (a.u.)
 --------------------------------------------------------------
 
 Alpha MOs
 -- Occupied --
-88.9083 -88.9083 -10.2251 -10.2251 -10.2200 -10.2194 -10.2020 -10.2020
-10.2012 -10.2012 -10.1845 -10.1845  -7.9697  -7.9697  -5.9339  -5.9339
 -5.9304  -5.9304  -5.9261  -5.9261  -0.9139  -0.8584  -0.7986  -0.7744
 -0.7662  -0.7130  -0.6951  -0.6341  -0.5884  -0.5583  -0.5475  -0.5228
 -0.4958  -0.4867  -0.4462  -0.4428  -0.4173  -0.4126  -0.3968  -0.3891
 -0.3766  -0.3734  -0.3625  -0.3512  -0.3310  -0.3080  -0.2911  -0.2580
 -0.2307  -0.1942
 -- Virtual --
 -0.0596  -0.0063   0.0199   0.0280   0.0557   0.0687   0.0834   0.0965
  0.0998   0.1236   0.1239   0.1395   0.1633   0.1702   0.1709   0.1979
  0.2044   0.2146   0.2320   0.2428   0.2968   0.2984   0.3234   0.3293
  0.3517   0.3533   0.3641   0.3655   0.3687   0.4261   0.4331   0.4587
  0.4670   0.4853   0.5090   0.5204   0.5274   0.5406   0.5494   0.5728
  0.5784   0.5917   0.6054   0.6059   0.6060   0.6238   0.6298   0.6501
  0.6747   0.6786   0.6854   0.7030   0.7470   0.7690   0.7795   0.7875
  0.8174   0.8187   0.8345   0.8509   0.8555   0.8608   0.8616   0.8621
  0.8745   0.8814   0.8995   0.9258   0.9471   0.9506   0.9732   0.9767
  1.0018   1.0066   1.0293   1.0359   1.0429   1.0505   1.0880   1.0986
  1.1535   1.1724   1.2067   1.2368   1.2890   1.2969   1.3178   1.3279
  1.3646   1.3767   1.3825   1.4074   1.4205   1.4451   1.4517   1.4585
  1.5112   1.6017   1.6117   1.6131   1.6288   1.7353   1.7548   1.8010
  1.8062   1.8543   1.8861   1.9079   1.9511   2.0010   2.0128   2.0200
  2.0527   2.0664   2.1165   2.1279   2.1550   2.1621   2.1982   2.2171
  2.2887   2.2933   2.3105   2.3307   2.3331   2.4019   2.4252   2.4320
  2.4714   2.4836   2.5042   2.5289   2.6972   2.7081   2.7375   2.8672
  2.8717   2.9194   2.9630   3.0268   3.0589   3.1314   3.9574   3.9574
  4.0894   4.0894   4.1258   4.1424   4.1619   4.2206   4.2799   4.4657
  4.5387   4.5420
 --------------------------------------------------------------
 
          Ground-State Mulliken Net Atomic Charges

     Atom                 Charge (a.u.)
  ----------------------------------------
      1 C                    -0.376415
      2 C                    -0.051784
      3 C                    -0.139765
      4 C                    -0.158108
      5 C                    -0.118693
      6 S                     0.247042
      7 C                    -0.139761
      8 C                    -0.051786
      9 C                    -0.376413
     10 C                    -0.158112
     11 C                    -0.118687
     12 S                     0.247036
     13 H                     0.148747
     14 H                     0.157721
     15 H                     0.139988
     16 H                     0.151269
     17 H                     0.139987
     18 H                     0.157718
     19 H                     0.148747
     20 H                     0.151268
  ----------------------------------------
  Sum of atomic charges =     0.000000

 -----------------------------------------------------------------
                    Cartesian Multipole Moments
 -----------------------------------------------------------------
    Charge (ESU x 10^10)
                 0.0000
    Dipole Moment (Debye)
         X       0.0000      Y       0.0000      Z      -0.0038
       Tot       0.0038
    Quadrupole Moments (Debye-Ang)
        XX     -74.1875     XY       4.5801     YY     -76.2615
        XZ       0.0009     YZ       0.0015     ZZ     -89.1606
    Octopole Moments (Debye-Ang^2)
       XXX       0.0010    XXY      -0.0001    XYY       0.0000
       YYY       0.0001    XXZ      -0.1736    XYZ       0.0094
       YYZ      -0.0021    XZZ       0.0001    YZZ       0.0001
       ZZZ       0.0143
    Hexadecapole Moments (Debye-Ang^3)
      XXXX   -3282.7345   XXXY      23.3190   XXYY    -660.8551
      XYYY      26.5051   YYYY    -547.7723   XXXZ       0.0190
      XXYZ       0.0279   XYYZ       0.0034   YYYZ       0.0035
      XXZZ    -691.7645   XYZZ      -3.3368   YYZZ    -123.2030
      XZZZ       0.0033   YZZZ       0.0007   ZZZZ     -99.8268
 -----------------------------------------------------------------
Archival summary:
1\1\nia0005.scinet.local\SP\ProcedureUnspecified\6-31G*\2108\rhickman\MonFeb708:19:442022MonFeb708:19:442022\0\\#,ProcedureUnspecified,6-31G*,\\0,1\S\C,1,1.72748\C,2,1.39332,1,111.076\C,2,1.4013,1,134.974,3,179.917,0\H,4,1.0747,2,124.426,1,0.0766715,0\C,4,1.3723,2,111.995,1,-179.898,0\C,3,1.4013,2,113.95,1,0.0026986,0\H,7,1.0747,3,124.426,2,179.992,0\C,7,1.37229,3,111.995,2,0.0202385,0\C,9,1.43594,7,126.561,3,179.904,0\H,10,1.08272,9,114.521,7,0.0992575,0\C,10,1.33039,9,125.016,7,-179.866,0\H,12,1.07529,10,121.726,9,179.97,0\H,12,1.07763,10,121.404,9,-0.027996,0\C,6,1.43595,4,126.558,2,179.908,0\H,15,1.08272,6,114.52,4,0.0617478,0\C,15,1.33039,6,125.017,4,-179.908,0\H,17,1.07529,15,121.725,6,179.961,0\H,17,1.07764,15,121.404,6,-0.0193159,0\S,3,1.72749,2,111.076,1,179.941,0\\\@

 Total job time:  26.20s(wall), 26.10s(cpu) 
 Mon Feb  7 08:19:44 2022

        *************************************************************
        *                                                           *
        *  Thank you very much for using Q-Chem.  Have a nice day.  *
        *                                                           *
        *************************************************************


