
Running Job 1 of 1 tidas/B035/conf-2/spe_input.inp
qchem tidas/B035/conf-2/spe_input.inp_151351.0 /home/a/aspuru/seifridm/acdc_laser/descriptor_computation/qchem151351/ 0
/gpfs/fs1/scinet/niagara/software/commercial/qc54/exe/qcprog.exe_s tidas/B035/conf-2/spe_input.inp_151351.0 /home/a/aspuru/seifridm/acdc_laser/descriptor_computation/qchem151351/
                  Welcome to Q-Chem
     A Quantum Leap Into The Future Of Chemistry


 Q-Chem 5.4, Q-Chem, Inc., Pleasanton, CA (2021)

 License issued to: SRG Alan Aspuru-Guzik, University of Toronto

 E. Epifanovsky,  A. T. B. Gilbert,  Xintian Feng,  Joonho Lee,  Yuezhi Mao,  
 N. Mardirossian,  P. Pokhilko,  A. White,  M. Wormit,  M. P. Coons,  
 A. L. Dempwolff,  Zhengting Gan,  D. Hait,  P. R. Horn,  L. D. Jacobson,  
 I. Kaliman,  J. Kussmann,  A. W. Lange,  Ka Un Lao,  D. S. Levine,  Jie Liu,  
 S. C. McKenzie,  A. F. Morrison,  K. Nanda,  F. Plasser,  D. R. Rehn,  
 M. L. Vidal,  Zhi-Qiang You,  Ying Zhu,  B. Alam,  B. Albrecht,  
 A. Aldossary,  E. Alguire,  J. H. Andersen,  D. Barton,  K. Begam,  A. Behn,  
 Y. A. Bernard,  E. J. Berquist,  H. Burton,  A. Carreras,  K. Carter-Fenk,  
 Romit Chakraborty,  A. D. Chien,  K. D. Closser,  V. Cofer-Shabica,  
 S. Dasgupta,  Jia Deng,  M. de Wergifosse,  M. Diedenhofen,  Hainam Do,  
 S. Ehlert,  Po-Tung Fang,  S. Fatehi,  Qingguo Feng,  T. Friedhoff,  
 J. Gayvert,  Qinghui Ge,  G. Gidofalvi,  M. Goldey,  J. Gomes,  
 C. Gonzalez-Espinoza,  S. Gulania,  A. Gunina,  M. W. D. Hanson-Heine,  
 P. H. P. Harbach,  A. W. Hauser,  M. F. Herbst,  M. Hernandez Vera,  
 M. Hodecker,  Z. C. Holden,  S. Houck,  Xunkun Huang,  Kerwin Hui,  
 B. C. Huynh,  M. Ivanov,  Hyunjun Ji,  Hanjie Jiang,  B. Kaduk,  S. Kaehler,  
 K. Khistyaev,  Jaehoon Kim,  P. Klunzinger,  Z. Koczor-Benda,  
 Joong Hoon Koh,  D. Kosenkov,  L. Koulias,  T. Kowalczyk,  C. M. Krauter,  
 K. Kue,  A. Kunitsa,  T. Kus,  A. Landau,  K. V. Lawler,  D. Lefrancois,  
 S. Lehtola,  Rain Li,  Yi-Pei Li,  Jiashu Liang,  M. Liebenthal,  
 Hung-Hsuan Lin,  You-Sheng Lin,  Fenglai Liu,  Kuan-Yu Liu,  
 M. Loipersberger,  A. Luenser,  A. Manjanath,  P. Manohar,  E. Mansoor,  
 S. F. Manzer,  Shan-Ping Mao,  A. V. Marenich,  T. Markovich,  S. Mason,  
 S. A. Maurer,  P. F. McLaughlin,  M. F. S. J. Menger,  J.-M. Mewes,  
 S. A. Mewes,  P. Morgante,  J. W. Mullinax,  K. J. Oosterbaan,  G. Paran,  
 Alexander C. Paul,  Suranjan K. Paul,  F. Pavosevic,  Zheng Pei,  S. Prager,  
 E. I. Proynov,  E. Ramos,  B. Rana,  A. E. Rask,  A. Rettig,  R. M. Richard,  
 F. Rob,  E. Rossomme,  T. Scheele,  M. Scheurer,  M. Schneider,  
 N. Sergueev,  S. M. Sharada,  W. Skomorowski,  D. W. Small,  C. J. Stein,  
 Yu-Chuan Su,  E. J. Sundstrom,  Zhen Tao,  J. Thirman,  T. Tsuchimochi,  
 N. M. Tubman,  S. P. Veccham,  O. Vydrov,  J. Wenzel,  J. Witte,  A. Yamada,  
 Kun Yao,  S. Yeganeh,  S. R. Yost,  A. Zech,  Igor Ying Zhang,  Xing Zhang,  
 Yu Zhang,  D. Zuev,  A. Aspuru-Guzik,  A. T. Bell,  N. A. Besley,  
 K. B. Bravaya,  B. R. Brooks,  D. Casanova,  Jeng-Da Chai,  S. Coriani,  
 C. J. Cramer,  A. E. DePrince, III,  R. A. DiStasio Jr.,  A. Dreuw,  
 B. D. Dunietz,  T. R. Furlani,  W. A. Goddard III,  S. Grimme,  
 S. Hammes-Schiffer,  T. Head-Gordon,  W. J. Hehre,  Chao-Ping Hsu,  
 T.-C. Jagau,  Yousung Jung,  A. Klamt,  Jing Kong,  D. S. Lambrecht,  
 WanZhen Liang,  N. J. Mayhall,  C. W. McCurdy,  J. B. Neaton,  T. Neudecker,  
 C. Ochsenfeld,  J. A. Parkhill,  R. Peverati,  V. A. Rassolov,  Yihan Shao,  
 L. V. Slipchenko,  R. P. Steele,  J. E. Subotnik,  A. J. W. Thom,  
 A. Tkatchenko,  D. G. Truhlar,  T. Van Voorhis,  T. A. Wesolowski,  
 K. B. Whaley,  H. L. Woodcock III,  P. M. Zimmerman,  S. Faraji,  
 P. M. W. Gill,  M. Head-Gordon,  J. M. Herbert,  A. I. Krylov

 Additional authors since Version 5.4.0: 
 Chandrima Chakravarty,  L. Cunha,  R. Kang,  Yongbin Kim,  S. Kotaru,  
 Shaozhi Li,  Xiangyuan Li,  F. Matz,  A. Molle,  V. Parravicini,  
 Haisheng Ren,  Hengyuan Shen,  Yingli Su,  Hung-Yi Tsai,  C. Utku,  
 Fang Wang,  Jeff Yang,  F. Zeller

 Contributors to earlier versions of Q-Chem not listed above: 
 R. D. Adamson,  B. Austin,  R. Baer,  J. Baker,  G. J. O. Beran,  
 K. Brandhorst,  S. T. Brown,  E. F. C. Byrd,  Arup K. Chakraborty,  
 G. K. L. Chan,  Chun-Min Chang,  Yunqing Chen,  C.-L. Cheng,  
 Siu Hung Chien,  D. M. Chipman,  D. L. Crittenden,  H. Dachsel,  
 R. J. Doerksen,  A. D. Dutoi,  R. G. Edgar,  J. Fosso-Tande,  
 L. Fusti-Molnar,  D. Ghosh,  A. Ghysels,  A. Golubeva-Zadorozhnaya,  
 J. Gonthier,  M. S. Gordon,  S. R. Gwaltney,  G. Hawkins,  J. E. Herr,  
 A. Heyden,  S. Hirata,  E. G. Hohenstein,  G. Kedziora,  F. J. Keil,  
 C. Kelley,  Jihan Kim,  R. A. King,  R. Z. Khaliullin,  P. P. Korambath,  
 W. Kurlancheek,  A. Laurent,  A. M. Lee,  M. S. Lee,  S. V. Levchenko,  
 Ching Yeh Lin,  D. Liotard,  E. Livshits,  R. C. Lochan,  I. Lotan,  
 L. A. Martinez-Martinez,  P. E. Maslen,  N. Nair,  D. P. O'Neill,  
 D. Neuhauser,  E. Neuscamman,  C. M. Oana,  R. Olivares-Amaya,  R. Olson,  
 T. M. Perrine,  B. Peters,  P. A. Pieniazek,  A. Prociuk,  Y. M. Rhee,  
 J. Ritchie,  M. A. Rohrdanz,  E. Rosta,  N. J. Russ,  H. F. Schaefer III,  
 M. W. Schmidt,  N. E. Schultz,  S. Sharma,  N. Shenvi,  C. D. Sherrill,  
 A. C. Simmonett,  A. Sodt,  T. Stein,  D. Stuck,  K. S. Thanthiriwatte,  
 V. Vanovschi,  L. Vogt,  Tao Wang,  A. Warshel,  M. A. Watson,  
 C. F. Williams,  Q. Wu,  X. Xu,  Jun Yang,  W. Zhang,  Yan Zhao

   Please cite Q-Chem as follows:
  "Software for the frontiers of quantum chemistry:
   An overview of developments in the Q-Chem 5 package"
   J. Chem. Phys. 155, 084801 (2021)
   https://doi.org/10.1063/5.0055522 (open access)

 Q-Chem 5.4.2 for Intel X86 EM64T Linux

 Parts of Q-Chem use Armadillo 9.900.5 (Nocturnal Misbehaviour).
 http://arma.sourceforge.net/

 Q-Chem begins on Fri Aug 12 13:13:08 2022  

 Host: 
0

     Scratch files written to /home/a/aspuru/seifridm/acdc_laser/descriptor_computation/qchem151351//
 Dec1321 |scratch|qcdevops|jenkins|workspace|build_RNUM 6959   
 Processing $rem in /gpfs/fs1/scinet/niagara/software/commercial/qc54/config/preferences:
 Processing $rem in /home/a/aspuru/seifridm/.qchemrc:

 Checking the input file for inconsistencies... 	...done.

--------------------------------------------------------------
User input:
--------------------------------------------------------------
$molecule
0 1
C           -2.11278083110000       -2.70580376940000        0.55133369300000
C           -0.93255324020000       -2.74024506610000       -0.05416931320000
C            0.04170397140000       -1.65300377440000       -0.10044959990000
C            1.39147913100000       -1.97956561800000       -0.00769551800000
C            2.38278635610000       -1.01836530950000        0.02772840330000
C            2.03407949930000        0.32688693730000       -0.04927962970000
O            2.91062462320000        1.36489787280000       -0.02905013840000
C            4.28362549170000        1.08553309680000        0.09990007770000
C            0.69060756900000        0.67122816720000       -0.17914299060000
C           -0.30804123370000       -0.29274367650000       -0.20699973840000
C           -1.69650629310000        0.09245205850000       -0.43708714830000
C           -2.26887074170000        1.22860265380000       -0.07559458040000
F           -1.72856309010000        2.22350926620000        0.61940978160000
F           -3.53949454210000        1.53103230380000       -0.34659123470000
H           -2.76262136360000       -3.56438017100000        0.56240573030000
H           -2.46177169790000       -1.83666409290000        1.08260292370000
H           -0.60210506380000       -3.66305442100000       -0.51633003050000
H            1.67129088040000       -3.02127135590000        0.05923963620000
H            3.41282128160000       -1.32652635450000        0.11083941420000
H            4.78144948420000        2.05378775280000        0.10435886820000
H            4.65467222810000        0.49292365550000       -0.74268734930000
H            4.50171198730000        0.56315200840000        1.03692846850000
H            0.45155271480000        1.71735569420000       -0.27696500420000
H           -2.32494314780000       -0.61336093080000       -0.96013761720000
$end

$rem
BASIS = 6-31G*
GUI = 2
METHOD = B3LYP
PRINT_ORBITALS false
MOLDEN_FORMAT false
$end
--------------------------------------------------------------
 ----------------------------------------------------------------
             Standard Nuclear Orientation (Angstroms)
    I     Atom           X                Y                Z
 ----------------------------------------------------------------
    1      C       2.2687546272     2.5819786832     0.5349230238
    2      C       1.0919566807     2.6458982470    -0.0748459014
    3      C       0.0861887936     1.5874887934    -0.1150079694
    4      C      -1.2536451396     1.9545016987    -0.0296528436
    5      C      -2.2729915661     1.0232914976     0.0107368325
    6      C      -1.9638958340    -0.3322789946    -0.0534409338
    7      O      -2.8707498660    -1.3437798742    -0.0271916655
    8      C      -4.2353052550    -1.0229401248     0.0946880572
    9      C      -0.6307709769    -0.7172018956    -0.1757711352
   10      C       0.3959719182     0.2166283299    -0.2085931162
   11      C       1.7731778898    -0.2113335679    -0.4306370697
   12      C       2.3106320391    -1.3606565420    -0.0573866811
   13      F       1.7390292791    -2.3330794446     0.6443729446
   14      F       3.5726190050    -1.7027754644    -0.3214534583
   15      H       2.9436109153     3.4210875331     0.5407602695
   16      H       2.5902821386     1.7076119447     1.0748751179
   17      H       0.7903313714     3.5739675738    -0.5460943803
   18      H      -1.5028022584     3.0045499460     0.0273136630
   19      H      -3.2937389326     1.3624014303     0.0876906163
   20      H      -4.7614971227    -1.9760210914     0.1058449644
   21      H      -4.5860657835    -0.4270478069    -0.7542492783
   22      H      -4.4408104829    -0.4861739845     1.0264152910
   23      H      -0.4223867025    -1.7707386394    -0.2637228052
   24      H       2.4238021661     0.4710395201    -0.9576490895
 ----------------------------------------------------------------
 Molecular Point Group                 C1    NOp =  1
 Largest Abelian Subgroup              C1    NOp =  1
 Nuclear Repulsion Energy =         851.55180320 hartrees
 There are       51 alpha and       51 beta electrons
 Requested basis set is 6-31G(d)
 There are 76 shells and 230 basis functions

 Total QAlloc Memory Limit   8000 MB
 Mega-Array Size       188 MB
 MEM_STATIC part       192 MB
 A cutoff of  1.0D-08 yielded   1867 shell pairs
 There are     18382 function pairs
 Smallest overlap matrix eigenvalue = 3.47E-04

 Scale SEOQF with 1.000000e-01/1.000000e-01/1.000000e+00

 Standard Electronic Orientation quadrupole field applied
 Nucleus-field energy     =     0.0000000272 hartrees
 Guess from superposition of atomic densities
 Warning:  Energy on first SCF cycle will be non-variational
 SAD guess density has 102.000000 electrons

 -----------------------------------------------------------------------
  General SCF calculation program by
  Eric Jon Sundstrom, Paul Horn, Yuezhi Mao, Dmitri Zuev, Alec White,
  David Stuck, Shaama M.S., Shane Yost, Joonho Lee, David Small,
  Daniel Levine, Susi Lehtola, Hugh Burton, Evgeny Epifanovsky,
  Bang C. Huynh
 -----------------------------------------------------------------------
 Exchange:     0.2000 Hartree-Fock + 0.0800 Slater + 0.7200 B88
 Correlation:  0.1900 VWN1RPA + 0.8100 LYP
 Using SG-1 standard quadrature grid
 A restricted SCF calculation will be
 performed using DIIS
 SCF converges when DIIS error is below 1.0e-05
 ---------------------------------------
  Cycle       Energy         DIIS error
 ---------------------------------------
    1    -703.1458282778      5.26e-02  
    2    -699.8056108811      5.81e-03  
    3    -699.6317472686      7.73e-03  
    4    -700.0141456423      1.62e-03  
    5    -700.0303789937      5.51e-04  
    6    -700.0319806526      2.49e-04  
    7    -700.0323919196      5.23e-05  
    8    -700.0324080461      1.97e-05  
    9    -700.0324108229      5.57e-06  Convergence criterion met
 ---------------------------------------
 SCF time:   CPU 43.53s  wall 44.00s 
 SCF   energy in the final basis set =     -700.0324108229
 Total energy in the final basis set =     -700.0324108229
 
 --------------------------------------------------------------
 
                    Orbital Energies (a.u.)
 --------------------------------------------------------------
 
 Alpha MOs
 -- Occupied --
-24.7351 -24.7274 -19.1800 -10.3488 -10.2473 -10.2419 -10.2050 -10.1945
-10.1908 -10.1901 -10.1900 -10.1869 -10.1812 -10.1779  -1.2770  -1.2166
 -1.0710  -0.8694  -0.8037  -0.7915  -0.7490  -0.7310  -0.6958  -0.6435
 -0.6128  -0.6049  -0.5739  -0.5543  -0.5401  -0.5126  -0.5084  -0.4906
 -0.4771  -0.4735  -0.4444  -0.4422  -0.4347  -0.4325  -0.4267  -0.4122
 -0.3999  -0.3956  -0.3825  -0.3633  -0.3489  -0.3324  -0.3284  -0.2910
 -0.2728  -0.2280  -0.2065
 -- Virtual --
 -0.0234  -0.0123   0.0457   0.0683   0.0939   0.1080   0.1204   0.1271
  0.1410   0.1463   0.1559   0.1621   0.1659   0.1689   0.1885   0.1964
  0.2065   0.2222   0.2584   0.2871   0.3214   0.3345   0.3425   0.3582
  0.3641   0.4200   0.4400   0.4727   0.4898   0.5073   0.5142   0.5229
  0.5326   0.5414   0.5497   0.5634   0.5674   0.5759   0.5854   0.5909
  0.5991   0.6152   0.6180   0.6253   0.6424   0.6484   0.6712   0.6850
  0.7061   0.7130   0.7406   0.7496   0.7837   0.7981   0.8296   0.8380
  0.8508   0.8537   0.8619   0.8682   0.8729   0.8831   0.9160   0.9333
  0.9401   0.9600   0.9666   0.9782   1.0015   1.0097   1.0421   1.0528
  1.0594   1.0797   1.0894   1.1189   1.1261   1.1627   1.1821   1.1957
  1.2111   1.2279   1.2294   1.2750   1.2947   1.3135   1.3553   1.3684
  1.3718   1.3878   1.4078   1.4202   1.4394   1.4585   1.4634   1.4853
  1.5153   1.5271   1.5585   1.5639   1.6094   1.6598   1.6891   1.7035
  1.7366   1.7630   1.7760   1.8063   1.8360   1.8416   1.8439   1.8563
  1.8832   1.8890   1.9023   1.9395   1.9451   1.9784   1.9888   1.9902
  1.9998   2.0263   2.0272   2.0511   2.0652   2.0885   2.1113   2.1235
  2.1431   2.1526   2.1627   2.2109   2.2235   2.2437   2.2443   2.2687
  2.3056   2.3213   2.3438   2.3743   2.4058   2.4188   2.4787   2.5232
  2.5418   2.5598   2.5671   2.6137   2.6341   2.6614   2.6849   2.7198
  2.7490   2.7602   2.8124   2.8178   2.8892   2.9678   2.9929   3.0298
  3.0810   3.1374   3.1918   3.3265   3.4813   4.0568   4.1035   4.1139
  4.1207   4.1587   4.2101   4.2532   4.3092   4.3593   4.4222   4.5436
  4.7717   4.8291   5.2462
 --------------------------------------------------------------
 
          Ground-State Mulliken Net Atomic Charges

     Atom                 Charge (a.u.)
  ----------------------------------------
      1 C                    -0.344965
      2 C                    -0.139201
      3 C                     0.103429
      4 C                    -0.198827
      5 C                    -0.192702
      6 C                     0.383873
      7 O                    -0.503110
      8 C                    -0.215501
      9 C                    -0.246760
     10 C                     0.133962
     11 C                    -0.328005
     12 C                     0.550923
     13 F                    -0.237716
     14 F                    -0.251327
     15 H                     0.141991
     16 H                     0.156633
     17 H                     0.132204
     18 H                     0.129674
     19 H                     0.130840
     20 H                     0.171098
     21 H                     0.151222
     22 H                     0.152026
     23 H                     0.142762
     24 H                     0.177476
  ----------------------------------------
  Sum of atomic charges =     0.000000

 -----------------------------------------------------------------
                    Cartesian Multipole Moments
 -----------------------------------------------------------------
    Charge (ESU x 10^10)
                 0.0000
    Dipole Moment (Debye)
         X      -2.1605      Y       1.4642      Z      -0.1663
       Tot       2.6152
    Quadrupole Moments (Debye-Ang)
        XX     -67.5253     XY       2.3528     YY     -77.4723
        XZ      -0.4760     YZ      -0.4671     ZZ     -81.2010
    Octopole Moments (Debye-Ang^2)
       XXX     -43.8329    XXY      -6.4096    XYY       4.7930
       YYY     -20.6456    XXZ       6.4852    XYZ       0.8316
       YYZ      -3.7800    XZZ      10.9272    YZZ     -16.6269
       ZZZ       3.5004
    Hexadecapole Moments (Debye-Ang^3)
      XXXX   -2291.1862   XXXY      29.2587   XXYY    -625.9434
      XYYY     -42.9066   YYYY   -1267.4302   XXXZ       1.5683
      XXYZ      -2.0896   XYYZ      -2.5764   YYYZ     -17.3216
      XXZZ    -445.8553   XYZZ     -21.2319   YYZZ    -253.7266
      XZZZ      -1.3190   YZZZ     -11.5347   ZZZZ    -129.5936
 -----------------------------------------------------------------
 Total job time:  46.56s(wall), 44.00s(cpu) 
 Fri Aug 12 13:13:55 2022

        *************************************************************
        *                                                           *
        *  Thank you very much for using Q-Chem.  Have a nice day.  *
        *                                                           *
        *************************************************************


