24
 energy: -42.127588779291 gnorm: 0.000055333302 xtb: 6.5.0 (unknown)
C           -2.11278083110000       -2.70580376940000        0.55133369300000
C           -0.93255324020000       -2.74024506610000       -0.05416931320000
C            0.04170397140000       -1.65300377440000       -0.10044959990000
C            1.39147913100000       -1.97956561800000       -0.00769551800000
C            2.38278635610000       -1.01836530950000        0.02772840330000
C            2.03407949930000        0.32688693730000       -0.04927962970000
O            2.91062462320000        1.36489787280000       -0.02905013840000
C            4.28362549170000        1.08553309680000        0.09990007770000
C            0.69060756900000        0.67122816720000       -0.17914299060000
C           -0.30804123370000       -0.29274367650000       -0.20699973840000
C           -1.69650629310000        0.09245205850000       -0.43708714830000
C           -2.26887074170000        1.22860265380000       -0.07559458040000
F           -1.72856309010000        2.22350926620000        0.61940978160000
F           -3.53949454210000        1.53103230380000       -0.34659123470000
H           -2.76262136360000       -3.56438017100000        0.56240573030000
H           -2.46177169790000       -1.83666409290000        1.08260292370000
H           -0.60210506380000       -3.66305442100000       -0.51633003050000
H            1.67129088040000       -3.02127135590000        0.05923963620000
H            3.41282128160000       -1.32652635450000        0.11083941420000
H            4.78144948420000        2.05378775280000        0.10435886820000
H            4.65467222810000        0.49292365550000       -0.74268734930000
H            4.50171198730000        0.56315200840000        1.03692846850000
H            0.45155271480000        1.71735569420000       -0.27696500420000
H           -2.32494314780000       -0.61336093080000       -0.96013761720000
