26
 energy: -41.832670679308 gnorm: 0.000032163597 xtb: 6.4.1 (23d549d)
C         4.49072388960000    1.10671490160000    0.12474927230000
C         3.31643764200000    1.71239371680000   -0.02720396660000
C         2.04895229790000    1.02951140270000   -0.05376543070000
C         0.78033576670000    1.52894086810000   -0.20326317580000
C        -0.09950436550000    0.41911701670000   -0.15779992520000
C        -1.55427434940000    0.54420801610000   -0.27989162870000
O        -2.12520576160000    1.60220219730000   -0.39324520670000
O        -2.18723052440000   -0.64154774950000   -0.26526969860000
C        -3.61097276240000   -0.60768343820000   -0.36054627850000
C        -4.25445302810000   -0.36224695550000    0.99685607350000
C         0.70625209910000   -0.70022299490000    0.02118628460000
C         0.37478550650000   -2.09443920910000    0.14544709810000
C         1.28177753490000   -3.05446039040000    0.31660291330000
O         1.99394256080000   -0.31778638270000    0.08212806980000
H         5.41347646100000    1.65876098180000    0.13837102020000
H         4.55768159490000    0.03841514470000    0.23978838240000
H         3.24851357550000    2.78471292370000   -0.14278670470000
H         0.49037129320000    2.55107875810000   -0.33157589270000
H        -3.89142935950000   -1.58492185270000   -0.75977310480000
H        -3.90061707400000    0.18028658970000   -1.06356138010000
H        -3.92857391500000   -1.11552652150000    1.71043435860000
H        -5.33554949130000   -0.40612399080000    0.90092826490000
H        -3.97293068710000    0.62054197910000    1.36678401930000
H        -0.67924475390000   -2.31589525170000    0.08885945300000
H         2.33357377560000   -2.83026111780000    0.37086701120000
H         0.99710785100000   -4.08770390710000    0.40620333240000
