
Running Job 1 of 1 fragments/C089/conf-1/spe_input.inp
qchem fragments/C089/conf-1/spe_input.inp_205375.0 /gpfs/fs0/scratch/a/aspuru/rhickman/descriptor_computation/qchem205375/ 0
/scinet/niagara/software/commercial/qc52/exe/qcprog.exe_s fragments/C089/conf-1/spe_input.inp_205375.0 /gpfs/fs0/scratch/a/aspuru/rhickman/descriptor_computation/qchem205375/
                  Welcome to Q-Chem
     A Quantum Leap Into The Future Of Chemistry


 Q-Chem 5.2, Q-Chem, Inc., Pleasanton, CA (2019)

 License issued to: SRG Alan Aspuru-Guzik, University of Toronto

 Yihan Shao,  Zhengting Gan,  E. Epifanovsky,  A. T. B. Gilbert,  M. Wormit,  
 J. Kussmann,  A. W. Lange,  A. Behn,  Jia Deng,  Xintian Feng,  D. Ghosh,  
 M. Goldey,  P. R. Horn,  L. D. Jacobson,  I. Kaliman,  T. Kus,  A. Landau,  
 Jie Liu,  E. I. Proynov,  R. M. Richard,  R. P. Steele,  E. J. Sundstrom,  
 H. L. Woodcock III,  P. M. Zimmerman,  D. Zuev,  B. Albrecht,  E. Alguire,  
 S. A. Baeppler,  D. Barton,  Z. Benda,  Y. A. Bernard,  E. J. Berquist,  
 K. B. Bravaya,  H. Burton,  D. Casanova,  Chun-Min Chang,  Yunqing Chen,  
 A. Chien,  K. D. Closser,  M. P. Coons,  S. Coriani,  S. Dasgupta,  
 A. L. Dempwolff,  M. Diedenhofen,  Hainam Do,  R. G. Edgar,  Po-Tung Fang,  
 S. Faraji,  S. Fatehi,  Qingguo Feng,  K. D. Fenk,  J. Fosso-Tande,  
 J. Gayvert,  Qinghui Ge,  A. Ghysels,  G. Gidofalvi,  J. Gomes,  
 J. Gonthier,  A. Gunina,  D. Hait,  M. W. D. Hanson-Heine,  
 P. H. P. Harbach,  A. W. Hauser,  M. F. Herbst,  J. E. Herr,  
 E. G. Hohenstein,  Z. C. Holden,  Kerwin Hui,  B. C. Huynh,  T.-C. Jagau,  
 Hyunjun Ji,  B. Kaduk,  K. Khistyaev,  Jaehoon Kim,  P. Klunzinger,  K. Koh,  
 D. Kosenkov,  L. Koulias,  T. Kowalczyk,  C. M. Krauter,  A. Kunitsa,  
 Ka Un Lao,  A. Laurent,  K. V. Lawler,  Joonho Lee,  D. Lefrancois,  
 S. Lehtola,  D. S. Levine,  Yi-Pei Li,  You-Sheng Lin,  Fenglai Liu,  
 E. Livshits,  A. Luenser,  P. Manohar,  E. Mansoor,  S. F. Manzer,  
 Shan-Ping Mao,  Yuezhi Mao,  N. Mardirossian,  A. V. Marenich,  
 T. Markovich,  L. A. Martinez-Martinez,  S. A. Maurer,  N. J. Mayhall,  
 S. C. McKenzie,  J.-M. Mewes,  P. Morgante,  A. F. Morrison,  
 J. W. Mullinax,  K. Nanda,  T. S. Nguyen-Beck,  R. Olivares-Amaya,  
 J. A. Parkhill,  Zheng Pei,  T. M. Perrine,  F. Plasser,  P. Pokhilko,  
 S. Prager,  A. Prociuk,  E. Ramos,  D. R. Rehn,  F. Rob,  M. Scheurer,  
 M. Schneider,  N. Sergueev,  S. M. Sharada,  S. Sharma,  D. W. Small,  
 T. Stauch,  T. Stein,  Yu-Chuan Su,  A. J. W. Thom,  A. Tkatchenko,  
 T. Tsuchimochi,  N. M. Tubman,  L. Vogt,  M. L. Vidal,  O. Vydrov,  
 M. A. Watson,  J. Wenzel,  M. de Wergifosse,  T. A. Wesolowski,  A. White,  
 J. Witte,  A. Yamada,  Jun Yang,  K. Yao,  S. Yeganeh,  S. R. Yost,  
 Zhi-Qiang You,  A. Zech,  Igor Ying Zhang,  Xing Zhang,  Yan Zhao,  
 Ying Zhu,  B. R. Brooks,  G. K. L. Chan,  C. J. Cramer,  M. S. Gordon,  
 W. J. Hehre,  A. Klamt,  M. W. Schmidt,  C. D. Sherrill,  D. G. Truhlar,  
 A. Aspuru-Guzik,  R. Baer,  A. T. Bell,  N. A. Besley,  Jeng-Da Chai,  
 A. E. DePrince, III,  R. A. DiStasio Jr.,  A. Dreuw,  B. D. Dunietz,  
 T. R. Furlani,  Chao-Ping Hsu,  Yousung Jung,  Jing Kong,  D. S. Lambrecht,  
 WanZhen Liang,  C. Ochsenfeld,  V. A. Rassolov,  L. V. Slipchenko,  
 J. E. Subotnik,  T. Van Voorhis,  J. M. Herbert,  A. I. Krylov,  
 P. M. W. Gill,  M. Head-Gordon

 Contributors to earlier versions of Q-Chem not listed above: 
 R. D. Adamson,  B. Austin,  J. Baker,  G. J. O. Beran,  K. Brandhorst,  
 S. T. Brown,  E. F. C. Byrd,  A. K. Chakraborty,  C.-L. Cheng,  
 Siu Hung Chien,  D. M. Chipman,  D. L. Crittenden,  H. Dachsel,  
 R. J. Doerksen,  A. D. Dutoi,  L. Fusti-Molnar,  W. A. Goddard III,  
 A. Golubeva-Zadorozhnaya,  S. R. Gwaltney,  G. Hawkins,  A. Heyden,  
 S. Hirata,  G. Kedziora,  F. J. Keil,  C. Kelley,  Jihan Kim,  R. A. King,  
 R. Z. Khaliullin,  P. P. Korambath,  W. Kurlancheek,  A. M. Lee,  M. S. Lee,  
 S. V. Levchenko,  Ching Yeh Lin,  D. Liotard,  R. C. Lochan,  I. Lotan,  
 P. E. Maslen,  N. Nair,  D. P. O'Neill,  D. Neuhauser,  E. Neuscamman,  
 C. M. Oana,  R. Olson,  B. Peters,  R. Peverati,  P. A. Pieniazek,  
 Y. M. Rhee,  J. Ritchie,  M. A. Rohrdanz,  E. Rosta,  N. J. Russ,  
 H. F. Schaefer III,  N. E. Schultz,  N. Shenvi,  A. C. Simmonett,  A. Sodt,  
 D. Stuck,  K. S. Thanthiriwatte,  V. Vanovschi,  Tao Wang,  A. Warshel,  
 C. F. Williams,  Q. Wu,  X. Xu,  W. Zhang

 Please cite Q-Chem as follows:
 Y. Shao et al., Mol. Phys. 113, 184-215 (2015)
 DOI: 10.1080/00268976.2014.952696

 Q-Chem 5.2.1 for Intel X86 EM64T Linux

 Parts of Q-Chem use Armadillo 8.300.2 (Tropical Shenanigans).
 http://arma.sourceforge.net/

 Q-Chem begins on Fri Feb  4 12:19:45 2022  

Host: 
0

     Scratch files written to /gpfs/fs0/scratch/a/aspuru/rhickman/descriptor_computation/qchem205375//
 Jul1719 |scratch|qcdevops|jenkins|workspace|build_RNUM -1
Processing $rem in /scinet/niagara/software/commercial/qc52/config/preferences:
	 MEM_TOTAL  4000 
NAlpha2: 78
NElect   78
Mult     1

Checking the input file for inconsistencies... 	...done.

--------------------------------------------------------------
User input:
--------------------------------------------------------------
$molecule
0 1
C        -3.85122151420000    0.43438514820000    0.25480782970000
C        -2.97942243130000   -0.53881313810000    0.01817730600000
C        -1.53229743960000   -0.40471431490000   -0.04201145520000
C        -0.73293867890000   -1.54428021850000   -0.17687532090000
N         0.57768860940000   -1.51658081060000   -0.22520048010000
C         1.22474385950000   -0.35301433860000   -0.12803079140000
C         2.67935538890000   -0.50059150450000   -0.16172636810000
C         3.57572236550000    0.23362952030000    0.48348180060000
C         0.53080696660000    0.86616280320000   -0.04051475880000
C         1.20945888720000    2.20126174760000   -0.03822199060000
C        -0.85442630770000    0.81284068420000    0.00154384380000
H        -4.90987416880000    0.24243308100000    0.28651075230000
H        -3.55247830970000    1.45376719530000    0.43089652210000
H        -3.34161953230000   -1.54780942350000   -0.13868723080000
H        -1.18149338500000   -2.52774012690000   -0.25236381750000
H         3.00136618770000   -1.36234117940000   -0.73187463790000
H         3.30933073490000    1.05473058460000    1.12506892570000
H         4.62735603730000    0.01002991950000    0.41611317340000
H         2.12621327170000    2.17297895570000   -0.62233337150000
H         1.45896843200000    2.50162405000000    0.97948622980000
H         0.54607886790000    2.95773846040000   -0.45392743620000
H        -1.41002314370000    1.73832818200000    0.05732826370000
$end

$rem
BASIS = 6-31G*
GUI = 2
METHOD = B3LYP
PRINT_ORBITALS false
MOLDEN_FORMAT false
--------------------------------------------------------------
 ----------------------------------------------------------------
             Standard Nuclear Orientation (Angstroms)
    I     Atom           X                Y                Z
 ----------------------------------------------------------------
    1      C       3.8152931198    -0.6924869723     0.2099941351
    2      C       3.0180834539     0.3585235128     0.0584149183
    3      C       1.5653788661     0.3362476737    -0.0117925629
    4      C       0.8519985691     1.5385648138    -0.0477812522
    5      N      -0.4568782042     1.6110159250    -0.0971664302
    6      C      -1.1875855400     0.4938451444    -0.0995362524
    7      C      -2.6273571416     0.7497364278    -0.1191958384
    8      C      -3.5783594626     0.0305264980     0.4614757670
    9      C      -0.5848949055    -0.7758175355    -0.1174540902
   10      C      -1.3591112480    -2.0530031700    -0.2290282236
   11      C       0.8002906420    -0.8277281839    -0.0721806729
   12      H       4.8849388231    -0.5818811881     0.2571167882
   13      H       3.4420539023    -1.6986118135     0.2983104881
   14      H       3.4537452850     1.3480437629    -0.0116933582
   15      H       1.3714844144     2.4894338483    -0.0390769623
   16      H      -2.8825753732     1.6783372174    -0.6130953568
   17      H      -3.3760332101    -0.8597287618     1.0300838549
   18      H      -4.6105058239     0.3353702175     0.4144344160
   19      H      -2.2681900821    -1.9078882221    -0.8077699176
   20      H      -1.6353607423    -2.4202820465     0.7594023462
   21      H      -0.7504299702    -2.8176174772    -0.7086250832
   22      H       1.2866020873    -1.7927362644    -0.0964177703
 ----------------------------------------------------------------
 Molecular Point Group                 C1    NOp =  1
 Largest Abelian Subgroup              C1    NOp =  1
 Nuclear Repulsion Energy =         553.42804654 hartrees
 There are       39 alpha and       39 beta electrons
 Requested basis set is 6-31G(d)
 There are 66 shells and 187 basis functions

 Total QAlloc Memory Limit   4000 MB
 Mega-Array Size       188 MB
 MEM_STATIC part       192 MB
 A cutoff of  1.0D-08 yielded   1606 shell pairs
 There are     14165 function pairs
 Smallest overlap matrix eigenvalue = 5.73E-04

 Scale SEOQF with 1.000000e-01/1.000000e-01/1.000000e+00

 Standard Electronic Orientation quadrupole field applied
 Nucleus-field energy     =     0.0000000163 hartrees
 Guess from superposition of atomic densities
 Warning:  Energy on first SCF cycle will be non-variational
 SAD guess density has 78.000000 electrons

 -----------------------------------------------------------------------
  General SCF calculation program by
  Eric Jon Sundstrom, Paul Horn, Yuezhi Mao, Dmitri Zuev, Alec White,
  David Stuck, Shaama M.S., Shane Yost, Joonho Lee, David Small,
  Daniel Levine, Susi Lehtola, Hugh Burton, Evgeny Epifanovsky,
  Bang C. Huynh
 -----------------------------------------------------------------------
 Exchange:     0.2000 Hartree-Fock + 0.0800 Slater + 0.7200 B88
 Correlation:  0.1900 VWN1RPA + 0.8100 LYP
 Using SG-1 standard quadrature grid
 A restricted SCF calculation will be
 performed using DIIS
 SCF converges when DIIS error is below 1.0e-05
 ---------------------------------------
  Cycle       Energy         DIIS error
 ---------------------------------------
    1    -444.8979240910      5.95e-02  
    2    -442.2307703233      5.92e-03  
    3    -442.2479645690      5.77e-03  
    4    -442.3944963758      9.23e-04  
    5    -442.3972781462      3.80e-04  
    6    -442.3978208456      1.15e-04  
    7    -442.3978741729      4.20e-05  
    8    -442.3978816342      1.41e-05  
    9    -442.3978825304      2.69e-06  Convergence criterion met
 ---------------------------------------
 SCF time:   CPU 26.81s  wall 27.00s 
 SCF   energy in the final basis set =     -442.3978825304
 Total energy in the final basis set =     -442.3978825304
 
 --------------------------------------------------------------
 
                    Orbital Energies (a.u.)
 --------------------------------------------------------------
 
 Alpha MOs
 -- Occupied --
-14.3196 -10.2219 -10.2134 -10.2027 -10.1994 -10.1982 -10.1957 -10.1872
-10.1853 -10.1847 -10.1826  -0.9462  -0.8265  -0.8122  -0.7743  -0.7325
 -0.7033  -0.6489  -0.6124  -0.5779  -0.5595  -0.5120  -0.4958  -0.4726
 -0.4431  -0.4327  -0.4264  -0.4196  -0.4009  -0.3966  -0.3948  -0.3857
 -0.3577  -0.3409  -0.3240  -0.2778  -0.2654  -0.2468  -0.2202
 -- Virtual --
 -0.0495  -0.0109   0.0197   0.0731   0.1019   0.1114   0.1159   0.1311
  0.1412   0.1569   0.1593   0.1805   0.1939   0.2002   0.2129   0.2214
  0.2610   0.2646   0.2992   0.3144   0.3314   0.3611   0.3757   0.3783
  0.4104   0.4490   0.4651   0.5044   0.5168   0.5329   0.5415   0.5507
  0.5562   0.5679   0.5720   0.5792   0.6012   0.6198   0.6345   0.6407
  0.6556   0.6656   0.6680   0.6860   0.6996   0.7074   0.7404   0.7504
  0.7601   0.7825   0.8223   0.8333   0.8493   0.8593   0.8710   0.8766
  0.8810   0.8905   0.9077   0.9244   0.9412   0.9622   0.9751   0.9838
  1.0033   1.0112   1.0245   1.0476   1.0836   1.1107   1.1281   1.1426
  1.1975   1.2087   1.2547   1.2685   1.2904   1.3060   1.3386   1.3970
  1.4204   1.4324   1.4637   1.4912   1.5058   1.5228   1.5268   1.5760
  1.6383   1.6694   1.6781   1.7159   1.7825   1.7963   1.8341   1.8474
  1.8592   1.8781   1.9158   1.9333   1.9721   1.9887   2.0049   2.0341
  2.0475   2.1274   2.1482   2.1547   2.1818   2.2040   2.2203   2.2379
  2.2774   2.2953   2.3043   2.3412   2.3546   2.3722   2.3819   2.4092
  2.4154   2.4976   2.5523   2.5851   2.6267   2.6529   2.6912   2.7144
  2.7514   2.7773   2.8557   2.8797   2.9505   2.9616   3.1031   3.2560
  3.4638   4.0793   4.0940   4.1390   4.1536   4.1869   4.2241   4.2571
  4.2915   4.3855   4.5390   4.7296
 --------------------------------------------------------------
 
          Ground-State Mulliken Net Atomic Charges

     Atom                 Charge (a.u.)
  ----------------------------------------
      1 C                    -0.350472
      2 C                    -0.116382
      3 C                     0.156778
      4 C                    -0.020937
      5 N                    -0.477651
      6 C                     0.220427
      7 C                    -0.093598
      8 C                    -0.342244
      9 C                     0.142414
     10 C                    -0.540589
     11 C                    -0.206960
     12 H                     0.147865
     13 H                     0.143110
     14 H                     0.132942
     15 H                     0.135925
     16 H                     0.148679
     17 H                     0.147118
     18 H                     0.147007
     19 H                     0.173535
     20 H                     0.167064
     21 H                     0.156071
     22 H                     0.129897
  ----------------------------------------
  Sum of atomic charges =     0.000000

 -----------------------------------------------------------------
                    Cartesian Multipole Moments
 -----------------------------------------------------------------
    Charge (ESU x 10^10)
                 0.0000
    Dipole Moment (Debye)
         X       0.4987      Y      -1.9193      Z       0.0449
       Tot       1.9836
    Quadrupole Moments (Debye-Ang)
        XX     -57.6163     XY       2.2660     YY     -63.6657
        XZ      -0.0596     YZ      -1.0384     ZZ     -67.6330
    Octopole Moments (Debye-Ang^2)
       XXX      -0.6791    XXY       3.2045    XYY       9.1554
       YYY      -8.3450    XXZ       2.8018    XYZ       2.6498
       YYZ      -0.3731    XZZ      -4.8572    YZZ      -0.9140
       ZZZ      -0.5898
    Hexadecapole Moments (Debye-Ang^3)
      XXXX   -1888.4431   XXXY     -12.9371   XXYY    -422.2883
      XYYY      10.1388   YYYY    -597.2976   XXXZ      -0.8821
      XXYZ     -14.1845   XYYZ       1.7819   YYYZ      -1.5887
      XXZZ    -386.5816   XYZZ       4.4257   YYZZ    -115.6516
      XZZZ      -1.0393   YZZZ      -2.1515   ZZZZ     -96.1972
 -----------------------------------------------------------------
Archival summary:
1\1\nia0001.scinet.local\SP\ProcedureUnspecified\6-31G*\11011\rhickman\FriFeb412:20:122022FriFeb412:20:122022\0\\#,ProcedureUnspecified,6-31G*,\\0,1\N\C,1,1.31181\H,2,1.08356,1,115.48\C,1,1.33492,2,120,3,-179.39,0\C,2,1.39849,1,123.877,3,-179.81,0\C,5,1.39422,2,115.894,1,1.86882,0\H,6,1.08089,5,119.962,2,177.1,0\C,6,1.3869,5,121.215,2,-2.16377,0\C,5,1.45457,2,119.837,1,-179.265,0\H,9,1.08345,5,114.359,2,-5.2221,0\C,9,1.32783,5,126.37,2,174.009,0\H,11,1.07638,9,121.352,5,-179.663,0\H,11,1.07675,9,122.742,5,0.00097737,0\C,4,1.46247,1,113.109,2,178.361,0\H,14,1.0823,4,112.856,1,29.0964,0\C,14,1.32622,4,127.242,1,-146.144,0\H,16,1.07555,14,123.056,4,-0.270066,0\H,16,1.07725,14,120.962,4,177.524,0\C,8,1.49769,6,119.132,5,177.92,0\H,19,1.08739,8,110.978,6,-146.877,0\H,19,1.08864,8,110.044,6,-26.0572,0\H,19,1.09005,8,110.535,6,92.8124,0\\\@

 Total job time:  27.08s(wall), 26.97s(cpu) 
 Fri Feb  4 12:20:12 2022

        *************************************************************
        *                                                           *
        *  Thank you very much for using Q-Chem.  Have a nice day.  *
        *                                                           *
        *************************************************************


