
Running Job 1 of 1 fragments/C037/conf-0/spe_input.inp
qchem fragments/C037/conf-0/spe_input.inp_158072.0 /gpfs/fs0/scratch/a/aspuru/rhickman/descriptor_computation/qchem158072/ 0
/scinet/niagara/software/commercial/qc52/exe/qcprog.exe_s fragments/C037/conf-0/spe_input.inp_158072.0 /gpfs/fs0/scratch/a/aspuru/rhickman/descriptor_computation/qchem158072/
                  Welcome to Q-Chem
     A Quantum Leap Into The Future Of Chemistry


 Q-Chem 5.2, Q-Chem, Inc., Pleasanton, CA (2019)

 License issued to: SRG Alan Aspuru-Guzik, University of Toronto

 Yihan Shao,  Zhengting Gan,  E. Epifanovsky,  A. T. B. Gilbert,  M. Wormit,  
 J. Kussmann,  A. W. Lange,  A. Behn,  Jia Deng,  Xintian Feng,  D. Ghosh,  
 M. Goldey,  P. R. Horn,  L. D. Jacobson,  I. Kaliman,  T. Kus,  A. Landau,  
 Jie Liu,  E. I. Proynov,  R. M. Richard,  R. P. Steele,  E. J. Sundstrom,  
 H. L. Woodcock III,  P. M. Zimmerman,  D. Zuev,  B. Albrecht,  E. Alguire,  
 S. A. Baeppler,  D. Barton,  Z. Benda,  Y. A. Bernard,  E. J. Berquist,  
 K. B. Bravaya,  H. Burton,  D. Casanova,  Chun-Min Chang,  Yunqing Chen,  
 A. Chien,  K. D. Closser,  M. P. Coons,  S. Coriani,  S. Dasgupta,  
 A. L. Dempwolff,  M. Diedenhofen,  Hainam Do,  R. G. Edgar,  Po-Tung Fang,  
 S. Faraji,  S. Fatehi,  Qingguo Feng,  K. D. Fenk,  J. Fosso-Tande,  
 J. Gayvert,  Qinghui Ge,  A. Ghysels,  G. Gidofalvi,  J. Gomes,  
 J. Gonthier,  A. Gunina,  D. Hait,  M. W. D. Hanson-Heine,  
 P. H. P. Harbach,  A. W. Hauser,  M. F. Herbst,  J. E. Herr,  
 E. G. Hohenstein,  Z. C. Holden,  Kerwin Hui,  B. C. Huynh,  T.-C. Jagau,  
 Hyunjun Ji,  B. Kaduk,  K. Khistyaev,  Jaehoon Kim,  P. Klunzinger,  K. Koh,  
 D. Kosenkov,  L. Koulias,  T. Kowalczyk,  C. M. Krauter,  A. Kunitsa,  
 Ka Un Lao,  A. Laurent,  K. V. Lawler,  Joonho Lee,  D. Lefrancois,  
 S. Lehtola,  D. S. Levine,  Yi-Pei Li,  You-Sheng Lin,  Fenglai Liu,  
 E. Livshits,  A. Luenser,  P. Manohar,  E. Mansoor,  S. F. Manzer,  
 Shan-Ping Mao,  Yuezhi Mao,  N. Mardirossian,  A. V. Marenich,  
 T. Markovich,  L. A. Martinez-Martinez,  S. A. Maurer,  N. J. Mayhall,  
 S. C. McKenzie,  J.-M. Mewes,  P. Morgante,  A. F. Morrison,  
 J. W. Mullinax,  K. Nanda,  T. S. Nguyen-Beck,  R. Olivares-Amaya,  
 J. A. Parkhill,  Zheng Pei,  T. M. Perrine,  F. Plasser,  P. Pokhilko,  
 S. Prager,  A. Prociuk,  E. Ramos,  D. R. Rehn,  F. Rob,  M. Scheurer,  
 M. Schneider,  N. Sergueev,  S. M. Sharada,  S. Sharma,  D. W. Small,  
 T. Stauch,  T. Stein,  Yu-Chuan Su,  A. J. W. Thom,  A. Tkatchenko,  
 T. Tsuchimochi,  N. M. Tubman,  L. Vogt,  M. L. Vidal,  O. Vydrov,  
 M. A. Watson,  J. Wenzel,  M. de Wergifosse,  T. A. Wesolowski,  A. White,  
 J. Witte,  A. Yamada,  Jun Yang,  K. Yao,  S. Yeganeh,  S. R. Yost,  
 Zhi-Qiang You,  A. Zech,  Igor Ying Zhang,  Xing Zhang,  Yan Zhao,  
 Ying Zhu,  B. R. Brooks,  G. K. L. Chan,  C. J. Cramer,  M. S. Gordon,  
 W. J. Hehre,  A. Klamt,  M. W. Schmidt,  C. D. Sherrill,  D. G. Truhlar,  
 A. Aspuru-Guzik,  R. Baer,  A. T. Bell,  N. A. Besley,  Jeng-Da Chai,  
 A. E. DePrince, III,  R. A. DiStasio Jr.,  A. Dreuw,  B. D. Dunietz,  
 T. R. Furlani,  Chao-Ping Hsu,  Yousung Jung,  Jing Kong,  D. S. Lambrecht,  
 WanZhen Liang,  C. Ochsenfeld,  V. A. Rassolov,  L. V. Slipchenko,  
 J. E. Subotnik,  T. Van Voorhis,  J. M. Herbert,  A. I. Krylov,  
 P. M. W. Gill,  M. Head-Gordon

 Contributors to earlier versions of Q-Chem not listed above: 
 R. D. Adamson,  B. Austin,  J. Baker,  G. J. O. Beran,  K. Brandhorst,  
 S. T. Brown,  E. F. C. Byrd,  A. K. Chakraborty,  C.-L. Cheng,  
 Siu Hung Chien,  D. M. Chipman,  D. L. Crittenden,  H. Dachsel,  
 R. J. Doerksen,  A. D. Dutoi,  L. Fusti-Molnar,  W. A. Goddard III,  
 A. Golubeva-Zadorozhnaya,  S. R. Gwaltney,  G. Hawkins,  A. Heyden,  
 S. Hirata,  G. Kedziora,  F. J. Keil,  C. Kelley,  Jihan Kim,  R. A. King,  
 R. Z. Khaliullin,  P. P. Korambath,  W. Kurlancheek,  A. M. Lee,  M. S. Lee,  
 S. V. Levchenko,  Ching Yeh Lin,  D. Liotard,  R. C. Lochan,  I. Lotan,  
 P. E. Maslen,  N. Nair,  D. P. O'Neill,  D. Neuhauser,  E. Neuscamman,  
 C. M. Oana,  R. Olson,  B. Peters,  R. Peverati,  P. A. Pieniazek,  
 Y. M. Rhee,  J. Ritchie,  M. A. Rohrdanz,  E. Rosta,  N. J. Russ,  
 H. F. Schaefer III,  N. E. Schultz,  N. Shenvi,  A. C. Simmonett,  A. Sodt,  
 D. Stuck,  K. S. Thanthiriwatte,  V. Vanovschi,  Tao Wang,  A. Warshel,  
 C. F. Williams,  Q. Wu,  X. Xu,  W. Zhang

 Please cite Q-Chem as follows:
 Y. Shao et al., Mol. Phys. 113, 184-215 (2015)
 DOI: 10.1080/00268976.2014.952696

 Q-Chem 5.2.1 for Intel X86 EM64T Linux

 Parts of Q-Chem use Armadillo 8.300.2 (Tropical Shenanigans).
 http://arma.sourceforge.net/

 Q-Chem begins on Mon Feb  7 18:01:50 2022  

Host: 
0

     Scratch files written to /gpfs/fs0/scratch/a/aspuru/rhickman/descriptor_computation/qchem158072//
 Jul1719 |scratch|qcdevops|jenkins|workspace|build_RNUM -1
Processing $rem in /scinet/niagara/software/commercial/qc52/config/preferences:
	 MEM_TOTAL  4000 
NAlpha2: 114
NElect   114
Mult     1

Checking the input file for inconsistencies... 	...done.

--------------------------------------------------------------
User input:
--------------------------------------------------------------
$molecule
0 1
C         3.35079281500000    2.09737192960000    0.59672357110000
C         2.17349126250000    1.48961291220000    0.69068120360000
C         1.89631911750000    0.14559467460000    0.22386058150000
C         2.89506036250000   -0.84668699620000    0.03512826520000
C         2.39900909030000   -2.04607502490000   -0.34820637790000
S         0.68764701670000   -2.02381506030000   -0.50173085580000
C         0.62579126300000   -0.34711145390000   -0.02285817370000
C        -0.62579023530000    0.34907710150000   -0.02202868890000
S        -0.69061127960000    2.02514193470000   -0.50271380200000
C        -2.40178322820000    2.04533561810000   -0.34675785150000
C        -2.89570654340000    0.84565161770000    0.03850482270000
C        -1.89531490330000   -0.14492446120000    0.22690041440000
C        -2.17048086230000   -1.48899925000000    0.69519403940000
C        -3.34452809660000   -2.10148489650000    0.59261423950000
H         3.49854838510000    3.09217927110000    0.97929661790000
H         4.20169525990000    1.63700859220000    0.12413723860000
H         1.34255317670000    2.00881621550000    1.14959648680000
H         3.94110234370000   -0.66748547680000    0.20385528420000
H         2.92960814010000   -2.95662036810000   -0.54412711800000
H        -2.93383053320000    2.95502150260000   -0.54272223440000
H        -3.94118385360000    0.66500488120000    0.20928328020000
H        -1.34117175800000   -2.00342870050000    1.16245933330000
H        -4.19273516580000   -1.64538998990000    0.11105033750000
H        -3.49204674730000   -3.09587269440000    0.97638584260000
$end

$rem
BASIS = 6-31G*
GUI = 2
METHOD = B3LYP
PRINT_ORBITALS false
MOLDEN_FORMAT false
--------------------------------------------------------------
 ----------------------------------------------------------------
             Standard Nuclear Orientation (Angstroms)
    I     Atom           X                Y                Z
 ----------------------------------------------------------------
    1      C      -3.4368196194     1.9532186603    -0.5797540811
    2      C      -2.2347694432     1.3960153267    -0.6737637853
    3      C      -1.9007457099     0.0649723175    -0.2069837864
    4      C      -2.8564328918    -0.9688389648    -0.0182429088
    5      C      -2.3098733884    -2.1460836791     0.3650475146
    6      S      -0.6009961315    -2.0511582124     0.5185176905
    7      C      -0.6104289143    -0.3733298038     0.0396826274
    8      C       0.6104529144     0.3753906193     0.0388294876
    9      S       0.6040415543     2.0526854433     0.5195521089
   10      C       2.3128064053     2.1455452996     0.3635418138
   11      C       2.8572270706     0.9679315876    -0.0217650182
   12      C       1.8998060894    -0.0642373557    -0.2101519551
   13      C       2.2317969794    -1.3954012835    -0.6784861397
   14      C       3.4308030228    -1.9574695759    -0.5759584190
   15      H      -3.6267082795     2.9408609289    -0.9622988985
   16      H      -4.2673849357     1.4571187317    -0.1071513611
   17      H      -1.4266492076     1.9500538442    -1.1326934268
   18      H      -3.9091479187    -0.8342253736    -0.1869321828
   19      H      -2.8013123075    -3.0783485171     0.5609637484
   20      H       2.8057417144     3.0770042544     0.5595106361
   21      H       3.9094281131     0.8318576487    -0.1925812365
   22      H       1.4250709142    -1.9445804719    -1.1457370140
   23      H       4.2588881928    -1.4657699268    -0.0944109198
   24      H       3.6204118592    -2.9446857021    -0.9597582334
 ----------------------------------------------------------------
 Molecular Point Group                 C1    NOp =  1
 Largest Abelian Subgroup              C1    NOp =  1
 Nuclear Repulsion Energy =        1032.77629300 hartrees
 There are       57 alpha and       57 beta electrons
 Requested basis set is 6-31G(d)
 There are 78 shells and 238 basis functions

 Total QAlloc Memory Limit   4000 MB
 Mega-Array Size       188 MB
 MEM_STATIC part       192 MB
 A cutoff of  1.0D-08 yielded   1964 shell pairs
 There are     20366 function pairs
 Smallest overlap matrix eigenvalue = 7.43E-04

 Scale SEOQF with 1.000000e-01/1.000000e-01/1.000000e+00

 Standard Electronic Orientation quadrupole field applied
 Nucleus-field energy     =     0.0000000149 hartrees
 Guess from superposition of atomic densities
 Warning:  Energy on first SCF cycle will be non-variational
 SAD guess density has 114.000000 electrons

 -----------------------------------------------------------------------
  General SCF calculation program by
  Eric Jon Sundstrom, Paul Horn, Yuezhi Mao, Dmitri Zuev, Alec White,
  David Stuck, Shaama M.S., Shane Yost, Joonho Lee, David Small,
  Daniel Levine, Susi Lehtola, Hugh Burton, Evgeny Epifanovsky,
  Bang C. Huynh
 -----------------------------------------------------------------------
 Exchange:     0.2000 Hartree-Fock + 0.0800 Slater + 0.7200 B88
 Correlation:  0.1900 VWN1RPA + 0.8100 LYP
 Using SG-1 standard quadrature grid
 A restricted SCF calculation will be
 performed using DIIS
 SCF converges when DIIS error is below 1.0e-05
 ---------------------------------------
  Cycle       Energy         DIIS error
 ---------------------------------------
    1   -1263.0993724764      5.24e-02  
    2   -1259.3607584515      5.56e-03  
    3   -1259.1512942991      7.42e-03  
    4   -1259.5868153127      1.64e-03  
    5   -1259.6058981279      6.27e-04  
    6   -1259.6080094352      3.34e-04  
    7   -1259.6088283555      9.20e-05  
    8   -1259.6088902092      1.95e-05  
    9   -1259.6088930098      4.01e-06  Convergence criterion met
 ---------------------------------------
 SCF time:   CPU 41.73s  wall 42.00s 
 SCF   energy in the final basis set =    -1259.6088930098
 Total energy in the final basis set =    -1259.6088930098
 
 --------------------------------------------------------------
 
                    Orbital Energies (a.u.)
 --------------------------------------------------------------
 
 Alpha MOs
 -- Occupied --
-88.9080 -88.9079 -10.2253 -10.2249 -10.2128 -10.2128 -10.1981 -10.1981
-10.1906 -10.1905 -10.1905 -10.1905 -10.1796 -10.1796  -7.9695  -7.9694
 -5.9335  -5.9335  -5.9297  -5.9296  -5.9265  -5.9264  -0.9023  -0.8783
 -0.7976  -0.7899  -0.7683  -0.7227  -0.7177  -0.6992  -0.6114  -0.6053
 -0.5870  -0.5614  -0.5384  -0.5132  -0.5077  -0.4736  -0.4509  -0.4473
 -0.4222  -0.4219  -0.4038  -0.4021  -0.3966  -0.3742  -0.3717  -0.3708
 -0.3544  -0.3414  -0.3386  -0.3004  -0.2955  -0.2690  -0.2387  -0.2292
 -0.1975
 -- Virtual --
 -0.0527  -0.0033   0.0017   0.0143   0.0390   0.0451   0.0885   0.0951
  0.1110   0.1150   0.1292   0.1349   0.1424   0.1431   0.1465   0.1536
  0.1919   0.1923   0.2061   0.2196   0.2367   0.2571   0.2657   0.2928
  0.3091   0.3254   0.3378   0.3392   0.3417   0.3702   0.3764   0.4003
  0.4038   0.4166   0.4351   0.4468   0.4578   0.4624   0.4676   0.4864
  0.4902   0.5390   0.5471   0.5577   0.5613   0.5647   0.5698   0.5873
  0.5931   0.6030   0.6059   0.6159   0.6251   0.6475   0.6566   0.6646
  0.6691   0.6833   0.6874   0.7122   0.7186   0.7638   0.7859   0.7874
  0.8074   0.8167   0.8186   0.8366   0.8450   0.8485   0.8621   0.8734
  0.8775   0.8798   0.9108   0.9185   0.9197   0.9321   0.9401   0.9504
  0.9558   0.9747   0.9790   0.9992   1.0013   1.0243   1.0266   1.0380
  1.0470   1.0672   1.0789   1.0857   1.1173   1.1437   1.1532   1.1776
  1.2149   1.2174   1.2529   1.2779   1.2987   1.3230   1.3742   1.3749
  1.3881   1.4154   1.4446   1.4610   1.4855   1.4879   1.4956   1.5278
  1.5339   1.5680   1.6409   1.6721   1.6857   1.7111   1.7579   1.7621
  1.7954   1.8433   1.8532   1.8679   1.9384   1.9437   1.9679   1.9732
  1.9911   2.0133   2.0216   2.0404   2.0642   2.0771   2.1357   2.1665
  2.1689   2.2168   2.2271   2.2381   2.2405   2.2649   2.2680   2.2971
  2.3130   2.3159   2.3741   2.3800   2.4634   2.4815   2.5053   2.5183
  2.5502   2.5656   2.6096   2.6304   2.6422   2.7414   2.7442   2.7759
  2.8007   2.8469   2.8806   3.1207   3.1241   3.2003   3.2339   3.9486
  3.9601   4.1059   4.1137   4.1151   4.1384   4.1559   4.1563   4.2757
  4.3109   4.3198   4.4062   4.5796   4.6691
 --------------------------------------------------------------
 
          Ground-State Mulliken Net Atomic Charges

     Atom                 Charge (a.u.)
  ----------------------------------------
      1 C                    -0.352296
      2 C                    -0.117035
      3 C                     0.148077
      4 C                    -0.127487
      5 C                    -0.349098
      6 S                     0.272491
      7 C                    -0.231356
      8 C                    -0.230634
      9 S                     0.272385
     10 C                    -0.349113
     11 C                    -0.127301
     12 C                     0.147454
     13 C                    -0.117429
     14 C                    -0.352005
     15 H                     0.144811
     16 H                     0.141317
     17 H                     0.154756
     18 H                     0.143004
     19 H                     0.172549
     20 H                     0.172577
     21 H                     0.143052
     22 H                     0.155053
     23 H                     0.141408
     24 H                     0.144821
  ----------------------------------------
  Sum of atomic charges =     0.000000

 -----------------------------------------------------------------
                    Cartesian Multipole Moments
 -----------------------------------------------------------------
    Charge (ESU x 10^10)
                 0.0000
    Dipole Moment (Debye)
         X       0.0036      Y      -0.0033      Z      -0.2480
       Tot       0.2481
    Quadrupole Moments (Debye-Ang)
        XX     -83.3239     XY       3.9800     YY     -87.5211
        XZ       0.0076     YZ       0.0035     ZZ     -99.8213
    Octopole Moments (Debye-Ang^2)
       XXX      -0.0417    XXY      -0.0262    XYY       0.0382
       YYY      -0.0261    XXZ       4.6415    XYZ       9.6249
       YYZ       0.6448    XZZ       0.0403    YZZ      -0.0342
       ZZZ       2.0730
    Hexadecapole Moments (Debye-Ang^3)
      XXXX   -2508.4839   XXXY      30.2567   XXYY    -648.2708
      XYYY      55.1722   YYYY   -1537.6669   XXXZ       0.3731
      XXYZ      -0.1705   XYYZ       0.0498   YYYZ       0.0175
      XXZZ    -538.0306   XYZZ      -0.5493   YYZZ    -318.9753
      XZZZ      -0.0435   YZZZ       0.0823   ZZZZ    -241.9248
 -----------------------------------------------------------------
Archival summary:
1\1\nia1977.scinet.local\SP\ProcedureUnspecified\6-31G*\21210\rhickman\MonFeb718:02:322022MonFeb718:02:322022\0\\#,ProcedureUnspecified,6-31G*,\\0,1\S\C,1,1.71838\H,2,1.07192,1,119.186\C,2,1.35335,1,112.263,3,-179.39,0\H,4,1.07461,2,123.302,1,178.733,0\C,4,1.42047,2,113.516,1,0.132993,0\C,6,1.38487,4,111.892,2,0.340445,0\C,7,1.43218,6,128.954,4,-175.853,0\C,8,1.38481,7,128.891,6,-153.403,0\C,9,1.42039,8,111.904,7,-175.794,0\H,10,1.07463,9,123.154,8,-178.238,0\C,10,1.35338,9,113.51,8,0.338389,0\H,12,1.07192,10,128.548,9,-179.171,0\C,6,1.44953,4,123.784,2,177.142,0\H,14,1.08196,6,115.766,4,-157.165,0\C,14,1.32825,6,124.817,4,22.4896,0\H,16,1.07603,14,121.305,6,-178.863,0\H,16,1.07671,14,122.404,6,2.16593,0\C,9,1.44967,8,124.251,7,7.4017,0\H,19,1.082,9,115.774,8,19.8429,0\C,19,1.32817,9,124.778,8,-160.493,0\H,21,1.07603,19,121.319,9,-178.865,0\H,21,1.07675,19,122.381,9,2.18724,0\S,12,1.71838,10,112.262,9,0.140013,0\\\@

 Total job time:  42.07s(wall), 41.94s(cpu) 
 Mon Feb  7 18:02:32 2022

        *************************************************************
        *                                                           *
        *  Thank you very much for using Q-Chem.  Have a nice day.  *
        *                                                           *
        *************************************************************


