
Running Job 1 of 1 tidas/B050/conf-2/spe_input.inp
qchem tidas/B050/conf-2/spe_input.inp_239629.0 /home/a/aspuru/seifridm/acdc_laser/descriptor_computation/qchem239629/ 0
/gpfs/fs1/scinet/niagara/software/commercial/qc54/exe/qcprog.exe_s tidas/B050/conf-2/spe_input.inp_239629.0 /home/a/aspuru/seifridm/acdc_laser/descriptor_computation/qchem239629/
                  Welcome to Q-Chem
     A Quantum Leap Into The Future Of Chemistry


 Q-Chem 5.4, Q-Chem, Inc., Pleasanton, CA (2021)

 License issued to: SRG Alan Aspuru-Guzik, University of Toronto

 E. Epifanovsky,  A. T. B. Gilbert,  Xintian Feng,  Joonho Lee,  Yuezhi Mao,  
 N. Mardirossian,  P. Pokhilko,  A. White,  M. Wormit,  M. P. Coons,  
 A. L. Dempwolff,  Zhengting Gan,  D. Hait,  P. R. Horn,  L. D. Jacobson,  
 I. Kaliman,  J. Kussmann,  A. W. Lange,  Ka Un Lao,  D. S. Levine,  Jie Liu,  
 S. C. McKenzie,  A. F. Morrison,  K. Nanda,  F. Plasser,  D. R. Rehn,  
 M. L. Vidal,  Zhi-Qiang You,  Ying Zhu,  B. Alam,  B. Albrecht,  
 A. Aldossary,  E. Alguire,  J. H. Andersen,  D. Barton,  K. Begam,  A. Behn,  
 Y. A. Bernard,  E. J. Berquist,  H. Burton,  A. Carreras,  K. Carter-Fenk,  
 Romit Chakraborty,  A. D. Chien,  K. D. Closser,  V. Cofer-Shabica,  
 S. Dasgupta,  Jia Deng,  M. de Wergifosse,  M. Diedenhofen,  Hainam Do,  
 S. Ehlert,  Po-Tung Fang,  S. Fatehi,  Qingguo Feng,  T. Friedhoff,  
 J. Gayvert,  Qinghui Ge,  G. Gidofalvi,  M. Goldey,  J. Gomes,  
 C. Gonzalez-Espinoza,  S. Gulania,  A. Gunina,  M. W. D. Hanson-Heine,  
 P. H. P. Harbach,  A. W. Hauser,  M. F. Herbst,  M. Hernandez Vera,  
 M. Hodecker,  Z. C. Holden,  S. Houck,  Xunkun Huang,  Kerwin Hui,  
 B. C. Huynh,  M. Ivanov,  Hyunjun Ji,  Hanjie Jiang,  B. Kaduk,  S. Kaehler,  
 K. Khistyaev,  Jaehoon Kim,  P. Klunzinger,  Z. Koczor-Benda,  
 Joong Hoon Koh,  D. Kosenkov,  L. Koulias,  T. Kowalczyk,  C. M. Krauter,  
 K. Kue,  A. Kunitsa,  T. Kus,  A. Landau,  K. V. Lawler,  D. Lefrancois,  
 S. Lehtola,  Rain Li,  Yi-Pei Li,  Jiashu Liang,  M. Liebenthal,  
 Hung-Hsuan Lin,  You-Sheng Lin,  Fenglai Liu,  Kuan-Yu Liu,  
 M. Loipersberger,  A. Luenser,  A. Manjanath,  P. Manohar,  E. Mansoor,  
 S. F. Manzer,  Shan-Ping Mao,  A. V. Marenich,  T. Markovich,  S. Mason,  
 S. A. Maurer,  P. F. McLaughlin,  M. F. S. J. Menger,  J.-M. Mewes,  
 S. A. Mewes,  P. Morgante,  J. W. Mullinax,  K. J. Oosterbaan,  G. Paran,  
 Alexander C. Paul,  Suranjan K. Paul,  F. Pavosevic,  Zheng Pei,  S. Prager,  
 E. I. Proynov,  E. Ramos,  B. Rana,  A. E. Rask,  A. Rettig,  R. M. Richard,  
 F. Rob,  E. Rossomme,  T. Scheele,  M. Scheurer,  M. Schneider,  
 N. Sergueev,  S. M. Sharada,  W. Skomorowski,  D. W. Small,  C. J. Stein,  
 Yu-Chuan Su,  E. J. Sundstrom,  Zhen Tao,  J. Thirman,  T. Tsuchimochi,  
 N. M. Tubman,  S. P. Veccham,  O. Vydrov,  J. Wenzel,  J. Witte,  A. Yamada,  
 Kun Yao,  S. Yeganeh,  S. R. Yost,  A. Zech,  Igor Ying Zhang,  Xing Zhang,  
 Yu Zhang,  D. Zuev,  A. Aspuru-Guzik,  A. T. Bell,  N. A. Besley,  
 K. B. Bravaya,  B. R. Brooks,  D. Casanova,  Jeng-Da Chai,  S. Coriani,  
 C. J. Cramer,  A. E. DePrince, III,  R. A. DiStasio Jr.,  A. Dreuw,  
 B. D. Dunietz,  T. R. Furlani,  W. A. Goddard III,  S. Grimme,  
 S. Hammes-Schiffer,  T. Head-Gordon,  W. J. Hehre,  Chao-Ping Hsu,  
 T.-C. Jagau,  Yousung Jung,  A. Klamt,  Jing Kong,  D. S. Lambrecht,  
 WanZhen Liang,  N. J. Mayhall,  C. W. McCurdy,  J. B. Neaton,  T. Neudecker,  
 C. Ochsenfeld,  J. A. Parkhill,  R. Peverati,  V. A. Rassolov,  Yihan Shao,  
 L. V. Slipchenko,  R. P. Steele,  J. E. Subotnik,  A. J. W. Thom,  
 A. Tkatchenko,  D. G. Truhlar,  T. Van Voorhis,  T. A. Wesolowski,  
 K. B. Whaley,  H. L. Woodcock III,  P. M. Zimmerman,  S. Faraji,  
 P. M. W. Gill,  M. Head-Gordon,  J. M. Herbert,  A. I. Krylov

 Additional authors since Version 5.4.0: 
 Chandrima Chakravarty,  L. Cunha,  R. Kang,  Yongbin Kim,  S. Kotaru,  
 Shaozhi Li,  Xiangyuan Li,  F. Matz,  A. Molle,  V. Parravicini,  
 Haisheng Ren,  Hengyuan Shen,  Yingli Su,  Hung-Yi Tsai,  C. Utku,  
 Fang Wang,  Jeff Yang,  F. Zeller

 Contributors to earlier versions of Q-Chem not listed above: 
 R. D. Adamson,  B. Austin,  R. Baer,  J. Baker,  G. J. O. Beran,  
 K. Brandhorst,  S. T. Brown,  E. F. C. Byrd,  Arup K. Chakraborty,  
 G. K. L. Chan,  Chun-Min Chang,  Yunqing Chen,  C.-L. Cheng,  
 Siu Hung Chien,  D. M. Chipman,  D. L. Crittenden,  H. Dachsel,  
 R. J. Doerksen,  A. D. Dutoi,  R. G. Edgar,  J. Fosso-Tande,  
 L. Fusti-Molnar,  D. Ghosh,  A. Ghysels,  A. Golubeva-Zadorozhnaya,  
 J. Gonthier,  M. S. Gordon,  S. R. Gwaltney,  G. Hawkins,  J. E. Herr,  
 A. Heyden,  S. Hirata,  E. G. Hohenstein,  G. Kedziora,  F. J. Keil,  
 C. Kelley,  Jihan Kim,  R. A. King,  R. Z. Khaliullin,  P. P. Korambath,  
 W. Kurlancheek,  A. Laurent,  A. M. Lee,  M. S. Lee,  S. V. Levchenko,  
 Ching Yeh Lin,  D. Liotard,  E. Livshits,  R. C. Lochan,  I. Lotan,  
 L. A. Martinez-Martinez,  P. E. Maslen,  N. Nair,  D. P. O'Neill,  
 D. Neuhauser,  E. Neuscamman,  C. M. Oana,  R. Olivares-Amaya,  R. Olson,  
 T. M. Perrine,  B. Peters,  P. A. Pieniazek,  A. Prociuk,  Y. M. Rhee,  
 J. Ritchie,  M. A. Rohrdanz,  E. Rosta,  N. J. Russ,  H. F. Schaefer III,  
 M. W. Schmidt,  N. E. Schultz,  S. Sharma,  N. Shenvi,  C. D. Sherrill,  
 A. C. Simmonett,  A. Sodt,  T. Stein,  D. Stuck,  K. S. Thanthiriwatte,  
 V. Vanovschi,  L. Vogt,  Tao Wang,  A. Warshel,  M. A. Watson,  
 C. F. Williams,  Q. Wu,  X. Xu,  Jun Yang,  W. Zhang,  Yan Zhao

   Please cite Q-Chem as follows:
  "Software for the frontiers of quantum chemistry:
   An overview of developments in the Q-Chem 5 package"
   J. Chem. Phys. 155, 084801 (2021)
   https://doi.org/10.1063/5.0055522 (open access)

 Q-Chem 5.4.2 for Intel X86 EM64T Linux

 Parts of Q-Chem use Armadillo 9.900.5 (Nocturnal Misbehaviour).
 http://arma.sourceforge.net/

 Q-Chem begins on Fri Aug 12 12:43:23 2022  

 Host: 
0

     Scratch files written to /home/a/aspuru/seifridm/acdc_laser/descriptor_computation/qchem239629//
 Dec1321 |scratch|qcdevops|jenkins|workspace|build_RNUM 6959   
 Processing $rem in /gpfs/fs1/scinet/niagara/software/commercial/qc54/config/preferences:
 Processing $rem in /home/a/aspuru/seifridm/.qchemrc:

 Checking the input file for inconsistencies... 	...done.

--------------------------------------------------------------
User input:
--------------------------------------------------------------
$molecule
0 1
C           -0.03109532340000        4.86257797740000        0.13248136160000
C           -0.93640252870000        3.89247291750000        0.10412730840000
C           -0.66793629740000        2.45818580140000        0.09606346930000
C           -1.74045700830000        1.57124440250000        0.02479828650000
C           -1.55890212120000        0.18790577160000        0.00985813390000
C           -2.74472350550000       -0.65281707210000       -0.07020271580000
C           -2.81524828640000       -1.97442709480000       -0.12660921420000
F           -1.81913555630000       -2.84948509610000       -0.12447307160000
F           -3.96859337300000       -2.63568289440000       -0.19950057640000
C           -0.26285953830000       -0.32113791370000        0.07316260040000
C            0.81621072660000        0.55196631950000        0.14801780230000
C            2.21622871070000        0.05374500060000        0.21857948180000
O            3.18353268970000        0.77574557760000        0.24885001360000
O            2.28033770660000       -1.28060310760000        0.25834235990000
C            3.58098425630000       -1.86577627630000        0.31138190630000
C            4.19587626800000       -1.98013279500000       -1.07616548790000
C            0.61845100160000        1.92687028950000        0.15756514870000
H           -0.32377510270000        5.89842866300000        0.13509780600000
H            1.02771448330000        4.67152857810000        0.15268258920000
H           -1.98752213580000        4.15326080790000        0.08121152470000
H           -2.74521720250000        1.96782705350000       -0.02260543310000
H           -3.69723382750000       -0.14292292320000       -0.08928460340000
H           -0.07625561680000       -1.38112632980000        0.06696717660000
H            3.42953838320000       -2.85063308270000        0.75804039290000
H            4.21879129980000       -1.25455286100000        0.95860971260000
H            3.53933602210000       -2.54601951680000       -1.73279237330000
H            5.15468709250000       -2.48604780020000       -1.00896848970000
H            4.34887337020000       -0.98920515780000       -1.49665567960000
H            1.48754268120000        2.56228797740000        0.21682296350000
$end

$rem
BASIS = 6-31G*
GUI = 2
METHOD = B3LYP
PRINT_ORBITALS false
MOLDEN_FORMAT false
$end
--------------------------------------------------------------
 ----------------------------------------------------------------
             Standard Nuclear Orientation (Angstroms)
    I     Atom           X                Y                Z
 ----------------------------------------------------------------
    1      C       0.0246395913    -4.8118517283     0.1339998983
    2      C      -0.9078115326    -3.8676094220     0.1132566125
    3      C      -0.6803130024    -2.4281774340     0.0384325177
    4      C      -1.7773290672    -1.5692112671     0.0663130563
    5      C      -1.6352196422    -0.1826855094     0.0017964882
    6      C      -2.8441286842     0.6274597769     0.0418032145
    7      C      -2.9520330094     1.9476268521     0.0238021051
    8      F      -1.9812968834     2.8488884115    -0.0342548930
    9      F      -4.1233970341     2.5791744353     0.0665951396
   10      C      -0.3545390397     0.3582822915    -0.0985545889
   11      C       0.7486119574    -0.4868935412    -0.1308443604
   12      C       2.1334979544     0.0457931909    -0.2384984810
   13      O       3.1208366999    -0.6492039468    -0.2341045732
   14      O       2.1593429497     1.3770121873    -0.3541010041
   15      C       3.4425046177     1.9946687172    -0.4485405246
   16      C       4.0605874164     2.2048536186     0.9263243167
   17      C       0.5900900560    -1.8651524699    -0.0613165259
   18      H      -0.2383962450    -5.8540212653     0.1918768966
   19      H       1.0774616886    -4.5924820477     0.0962011664
   20      H      -1.9509451379    -4.1562066834     0.1576614255
   21      H      -2.7701324740    -1.9906341901     0.1425500214
   22      H      -3.7816102638     0.0928191753     0.0958382978
   23      H      -0.1982056074     1.4217536102    -0.1535405973
   24      H       3.2608823435     2.9479361723    -0.9492171604
   25      H       4.0943429017     1.3659336892    -1.0642473035
   26      H       3.3913618478     2.7883481575     1.5541005541
   27      H       5.0042476905     2.7329708691     0.8244367162
   28      H       4.2438068445     1.2440865942     1.4012085792
   29      H       1.4766487793    -2.4781540771    -0.0901285686
 ----------------------------------------------------------------
 Molecular Point Group                 C1    NOp =  1
 Largest Abelian Subgroup              C1    NOp =  1
 Nuclear Repulsion Energy =        1142.98266360 hartrees
 There are       62 alpha and       62 beta electrons
 Requested basis set is 6-31G(d)
 There are 92 shells and 279 basis functions

 Total QAlloc Memory Limit   8000 MB
 Mega-Array Size       188 MB
 MEM_STATIC part       192 MB
 A cutoff of  1.0D-08 yielded   2281 shell pairs
 There are     22871 function pairs
 Smallest overlap matrix eigenvalue = 3.56E-04

 Scale SEOQF with 1.000000e-01/1.000000e-02/1.000000e-01

 Standard Electronic Orientation quadrupole field applied
 Nucleus-field energy     =     0.0000000301 hartrees
 Guess from superposition of atomic densities
 Warning:  Energy on first SCF cycle will be non-variational
 SAD guess density has 124.000000 electrons

 -----------------------------------------------------------------------
  General SCF calculation program by
  Eric Jon Sundstrom, Paul Horn, Yuezhi Mao, Dmitri Zuev, Alec White,
  David Stuck, Shaama M.S., Shane Yost, Joonho Lee, David Small,
  Daniel Levine, Susi Lehtola, Hugh Burton, Evgeny Epifanovsky,
  Bang C. Huynh
 -----------------------------------------------------------------------
 Exchange:     0.2000 Hartree-Fock + 0.0800 Slater + 0.7200 B88
 Correlation:  0.1900 VWN1RPA + 0.8100 LYP
 Using SG-1 standard quadrature grid
 A restricted SCF calculation will be
 performed using DIIS
 SCF converges when DIIS error is below 1.0e-05
 ---------------------------------------
  Cycle       Energy         DIIS error
 ---------------------------------------
    1    -856.4382014711      4.80e-02  
    2    -852.4009540608      5.84e-03  
    3    -852.0283885548      8.96e-03  
    4    -852.6784323562      2.03e-03  
    5    -852.7099849330      6.49e-04  
    6    -852.7128423169      2.42e-04  
    7    -852.7133297168      6.50e-05  
    8    -852.7133643395      2.62e-05  
    9    -852.7133717430      6.97e-06  Convergence criterion met
 ---------------------------------------
 SCF time:   CPU 80.29s  wall 91.00s 
 SCF   energy in the final basis set =     -852.7133717430
 Total energy in the final basis set =     -852.7133717430
 
 --------------------------------------------------------------
 
                    Orbital Energies (a.u.)
 --------------------------------------------------------------
 
 Alpha MOs
 -- Occupied --
-24.7491 -24.7383 -19.1915 -19.1321 -10.3618 -10.3135 -10.2427 -10.2139
-10.2077 -10.2043 -10.2040 -10.2001 -10.1963 -10.1954 -10.1945 -10.1847
-10.1798  -1.2905  -1.2291  -1.1089  -1.0171  -0.8807  -0.8210  -0.8027
 -0.7732  -0.7533  -0.7317  -0.6746  -0.6541  -0.6328  -0.6199  -0.5867
 -0.5698  -0.5547  -0.5304  -0.5237  -0.5153  -0.4980  -0.4844  -0.4775
 -0.4643  -0.4524  -0.4455  -0.4452  -0.4354  -0.4350  -0.4159  -0.4146
 -0.4088  -0.3947  -0.3811  -0.3796  -0.3755  -0.3578  -0.3517  -0.3393
 -0.3246  -0.2993  -0.2897  -0.2738  -0.2411  -0.2237
 -- Virtual --
 -0.0451  -0.0439   0.0049   0.0813   0.0833   0.0874   0.1092   0.1148
  0.1185   0.1309   0.1472   0.1476   0.1562   0.1610   0.1653   0.1789
  0.1894   0.1912   0.2015   0.2085   0.2229   0.2296   0.2678   0.2795
  0.2984   0.3066   0.3111   0.3310   0.3572   0.3860   0.4176   0.4397
  0.4608   0.4751   0.4852   0.4973   0.5087   0.5157   0.5219   0.5346
  0.5388   0.5434   0.5474   0.5560   0.5580   0.5676   0.5764   0.5808
  0.5831   0.5977   0.6179   0.6194   0.6222   0.6368   0.6395   0.6566
  0.6596   0.6814   0.6967   0.7097   0.7523   0.7621   0.7704   0.7769
  0.7918   0.7986   0.8096   0.8186   0.8253   0.8495   0.8603   0.8744
  0.8811   0.8916   0.8942   0.8958   0.9108   0.9347   0.9491   0.9571
  0.9608   0.9870   1.0079   1.0160   1.0231   1.0437   1.0583   1.0916
  1.1019   1.1042   1.1183   1.1449   1.1569   1.1681   1.1728   1.2083
  1.2094   1.2157   1.2452   1.2549   1.2721   1.3024   1.3185   1.3213
  1.3365   1.3425   1.3656   1.3875   1.3993   1.4048   1.4411   1.4534
  1.4562   1.4729   1.4832   1.4935   1.5020   1.5124   1.5506   1.5661
  1.5903   1.6445   1.6703   1.6776   1.6901   1.7201   1.7383   1.7506
  1.7739   1.7796   1.7865   1.8011   1.8287   1.8300   1.8328   1.8613
  1.8727   1.8873   1.8919   1.8952   1.9331   1.9372   1.9464   1.9644
  1.9730   1.9851   1.9926   2.0182   2.0248   2.0264   2.0510   2.0664
  2.0761   2.1162   2.1214   2.1401   2.1571   2.1618   2.1789   2.2068
  2.2207   2.2222   2.2589   2.2865   2.2913   2.3132   2.3182   2.3392
  2.3485   2.4069   2.4253   2.4287   2.4901   2.5001   2.5167   2.5207
  2.5405   2.5842   2.6046   2.6377   2.6429   2.6610   2.6767   2.6973
  2.7546   2.7592   2.8093   2.8272   2.8696   2.8984   2.9129   2.9674
  2.9912   3.0472   3.1191   3.1342   3.1735   3.2246   3.3314   3.4907
  3.9884   4.0724   4.0885   4.1152   4.1211   4.1484   4.1898   4.2302
  4.2614   4.3292   4.4360   4.4774   4.4916   4.5700   4.7495   4.8320
  5.2996
 --------------------------------------------------------------
 
          Ground-State Mulliken Net Atomic Charges

     Atom                 Charge (a.u.)
  ----------------------------------------
      1 C                    -0.350863
      2 C                    -0.111362
      3 C                     0.179023
      4 C                    -0.263678
      5 C                     0.198462
      6 C                    -0.298661
      7 C                     0.548351
      8 F                    -0.230866
      9 F                    -0.247144
     10 C                    -0.234421
     11 C                     0.046765
     12 C                     0.606294
     13 O                    -0.493138
     14 O                    -0.466894
     15 C                    -0.046003
     16 C                    -0.464762
     17 C                    -0.223633
     18 H                     0.147420
     19 H                     0.153603
     20 H                     0.127418
     21 H                     0.130906
     22 H                     0.160664
     23 H                     0.162348
     24 H                     0.152476
     25 H                     0.168855
     26 H                     0.157594
     27 H                     0.152030
     28 H                     0.178933
     29 H                     0.160283
  ----------------------------------------
  Sum of atomic charges =     0.000000

 -----------------------------------------------------------------
                    Cartesian Multipole Moments
 -----------------------------------------------------------------
    Charge (ESU x 10^10)
                 0.0000
    Dipole Moment (Debye)
         X      -0.9525      Y       0.2925      Z       0.1295
       Tot       1.0048
    Quadrupole Moments (Debye-Ang)
        XX     -92.6336     XY      11.5268     YY     -89.4915
        XZ      -0.2977     YZ      -0.9049     ZZ     -97.8982
    Octopole Moments (Debye-Ang^2)
       XXX     -25.1215    XXY      28.3898    XYY       9.4715
       YYY      17.6832    XXZ      -0.1795    XYZ      -1.5577
       YYZ       0.1319    XZZ      -2.3705    YZZ      26.7499
       ZZZ      -3.1670
    Hexadecapole Moments (Debye-Ang^3)
      XXXX   -3352.5187   XXXY      88.6546   XXYY   -1023.0848
      XYYY     -49.9762   YYYY   -2803.5904   XXXZ     -13.1709
      XXYZ     -14.7310   XYYZ      -9.8162   YYYZ     -17.3988
      XXZZ    -591.4294   XYZZ     -43.9172   YYZZ    -558.1202
      XZZZ      -9.7910   YZZZ       0.7192   ZZZZ    -167.4816
 -----------------------------------------------------------------
 Total job time:  93.92s(wall), 80.92s(cpu) 
 Fri Aug 12 12:44:57 2022

        *************************************************************
        *                                                           *
        *  Thank you very much for using Q-Chem.  Have a nice day.  *
        *                                                           *
        *************************************************************


