
Running Job 1 of 1 fragments/A022/conf-0/spe_input.inp
qchem fragments/A022/conf-0/spe_input.inp_126666.0 /gpfs/fs0/scratch/a/aspuru/rhickman/descriptor_computation/qchem126666/ 0
/scinet/niagara/software/commercial/qc52/exe/qcprog.exe_s fragments/A022/conf-0/spe_input.inp_126666.0 /gpfs/fs0/scratch/a/aspuru/rhickman/descriptor_computation/qchem126666/
                  Welcome to Q-Chem
     A Quantum Leap Into The Future Of Chemistry


 Q-Chem 5.2, Q-Chem, Inc., Pleasanton, CA (2019)

 License issued to: SRG Alan Aspuru-Guzik, University of Toronto

 Yihan Shao,  Zhengting Gan,  E. Epifanovsky,  A. T. B. Gilbert,  M. Wormit,  
 J. Kussmann,  A. W. Lange,  A. Behn,  Jia Deng,  Xintian Feng,  D. Ghosh,  
 M. Goldey,  P. R. Horn,  L. D. Jacobson,  I. Kaliman,  T. Kus,  A. Landau,  
 Jie Liu,  E. I. Proynov,  R. M. Richard,  R. P. Steele,  E. J. Sundstrom,  
 H. L. Woodcock III,  P. M. Zimmerman,  D. Zuev,  B. Albrecht,  E. Alguire,  
 S. A. Baeppler,  D. Barton,  Z. Benda,  Y. A. Bernard,  E. J. Berquist,  
 K. B. Bravaya,  H. Burton,  D. Casanova,  Chun-Min Chang,  Yunqing Chen,  
 A. Chien,  K. D. Closser,  M. P. Coons,  S. Coriani,  S. Dasgupta,  
 A. L. Dempwolff,  M. Diedenhofen,  Hainam Do,  R. G. Edgar,  Po-Tung Fang,  
 S. Faraji,  S. Fatehi,  Qingguo Feng,  K. D. Fenk,  J. Fosso-Tande,  
 J. Gayvert,  Qinghui Ge,  A. Ghysels,  G. Gidofalvi,  J. Gomes,  
 J. Gonthier,  A. Gunina,  D. Hait,  M. W. D. Hanson-Heine,  
 P. H. P. Harbach,  A. W. Hauser,  M. F. Herbst,  J. E. Herr,  
 E. G. Hohenstein,  Z. C. Holden,  Kerwin Hui,  B. C. Huynh,  T.-C. Jagau,  
 Hyunjun Ji,  B. Kaduk,  K. Khistyaev,  Jaehoon Kim,  P. Klunzinger,  K. Koh,  
 D. Kosenkov,  L. Koulias,  T. Kowalczyk,  C. M. Krauter,  A. Kunitsa,  
 Ka Un Lao,  A. Laurent,  K. V. Lawler,  Joonho Lee,  D. Lefrancois,  
 S. Lehtola,  D. S. Levine,  Yi-Pei Li,  You-Sheng Lin,  Fenglai Liu,  
 E. Livshits,  A. Luenser,  P. Manohar,  E. Mansoor,  S. F. Manzer,  
 Shan-Ping Mao,  Yuezhi Mao,  N. Mardirossian,  A. V. Marenich,  
 T. Markovich,  L. A. Martinez-Martinez,  S. A. Maurer,  N. J. Mayhall,  
 S. C. McKenzie,  J.-M. Mewes,  P. Morgante,  A. F. Morrison,  
 J. W. Mullinax,  K. Nanda,  T. S. Nguyen-Beck,  R. Olivares-Amaya,  
 J. A. Parkhill,  Zheng Pei,  T. M. Perrine,  F. Plasser,  P. Pokhilko,  
 S. Prager,  A. Prociuk,  E. Ramos,  D. R. Rehn,  F. Rob,  M. Scheurer,  
 M. Schneider,  N. Sergueev,  S. M. Sharada,  S. Sharma,  D. W. Small,  
 T. Stauch,  T. Stein,  Yu-Chuan Su,  A. J. W. Thom,  A. Tkatchenko,  
 T. Tsuchimochi,  N. M. Tubman,  L. Vogt,  M. L. Vidal,  O. Vydrov,  
 M. A. Watson,  J. Wenzel,  M. de Wergifosse,  T. A. Wesolowski,  A. White,  
 J. Witte,  A. Yamada,  Jun Yang,  K. Yao,  S. Yeganeh,  S. R. Yost,  
 Zhi-Qiang You,  A. Zech,  Igor Ying Zhang,  Xing Zhang,  Yan Zhao,  
 Ying Zhu,  B. R. Brooks,  G. K. L. Chan,  C. J. Cramer,  M. S. Gordon,  
 W. J. Hehre,  A. Klamt,  M. W. Schmidt,  C. D. Sherrill,  D. G. Truhlar,  
 A. Aspuru-Guzik,  R. Baer,  A. T. Bell,  N. A. Besley,  Jeng-Da Chai,  
 A. E. DePrince, III,  R. A. DiStasio Jr.,  A. Dreuw,  B. D. Dunietz,  
 T. R. Furlani,  Chao-Ping Hsu,  Yousung Jung,  Jing Kong,  D. S. Lambrecht,  
 WanZhen Liang,  C. Ochsenfeld,  V. A. Rassolov,  L. V. Slipchenko,  
 J. E. Subotnik,  T. Van Voorhis,  J. M. Herbert,  A. I. Krylov,  
 P. M. W. Gill,  M. Head-Gordon

 Contributors to earlier versions of Q-Chem not listed above: 
 R. D. Adamson,  B. Austin,  J. Baker,  G. J. O. Beran,  K. Brandhorst,  
 S. T. Brown,  E. F. C. Byrd,  A. K. Chakraborty,  C.-L. Cheng,  
 Siu Hung Chien,  D. M. Chipman,  D. L. Crittenden,  H. Dachsel,  
 R. J. Doerksen,  A. D. Dutoi,  L. Fusti-Molnar,  W. A. Goddard III,  
 A. Golubeva-Zadorozhnaya,  S. R. Gwaltney,  G. Hawkins,  A. Heyden,  
 S. Hirata,  G. Kedziora,  F. J. Keil,  C. Kelley,  Jihan Kim,  R. A. King,  
 R. Z. Khaliullin,  P. P. Korambath,  W. Kurlancheek,  A. M. Lee,  M. S. Lee,  
 S. V. Levchenko,  Ching Yeh Lin,  D. Liotard,  R. C. Lochan,  I. Lotan,  
 P. E. Maslen,  N. Nair,  D. P. O'Neill,  D. Neuhauser,  E. Neuscamman,  
 C. M. Oana,  R. Olson,  B. Peters,  R. Peverati,  P. A. Pieniazek,  
 Y. M. Rhee,  J. Ritchie,  M. A. Rohrdanz,  E. Rosta,  N. J. Russ,  
 H. F. Schaefer III,  N. E. Schultz,  N. Shenvi,  A. C. Simmonett,  A. Sodt,  
 D. Stuck,  K. S. Thanthiriwatte,  V. Vanovschi,  Tao Wang,  A. Warshel,  
 C. F. Williams,  Q. Wu,  X. Xu,  W. Zhang

 Please cite Q-Chem as follows:
 Y. Shao et al., Mol. Phys. 113, 184-215 (2015)
 DOI: 10.1080/00268976.2014.952696

 Q-Chem 5.2.1 for Intel X86 EM64T Linux

 Parts of Q-Chem use Armadillo 8.300.2 (Tropical Shenanigans).
 http://arma.sourceforge.net/

 Q-Chem begins on Mon Feb  7 16:17:24 2022  

Host: 
0

     Scratch files written to /gpfs/fs0/scratch/a/aspuru/rhickman/descriptor_computation/qchem126666//
 Jul1719 |scratch|qcdevops|jenkins|workspace|build_RNUM -1
Processing $rem in /scinet/niagara/software/commercial/qc52/config/preferences:
	 MEM_TOTAL  4000 
NAlpha2: 206
NElect   206
Mult     1

Checking the input file for inconsistencies... 	...done.

--------------------------------------------------------------
User input:
--------------------------------------------------------------
$molecule
0 1
F         2.45211572010000    3.86453336810000   -0.26757806580000
C         3.36847708990000    2.92881367720000   -0.58707257810000
F         3.38568605650000    2.87751615220000   -1.93220553910000
F         4.55548336970000    3.41732188340000   -0.20960677220000
C         3.04550028770000    1.59777672860000    0.02699977250000
C         1.85870122530000    0.98440758520000   -0.35089536260000
C         1.49326761070000   -0.23003217940000    0.21794336670000
N         0.28522837110000   -0.86112513170000   -0.11439838010000
C         0.42512581190000   -2.21463451970000   -0.49034304240000
C         1.17472933520000   -3.07691012270000    0.30544869380000
S         1.98145808910000   -2.44296910850000    1.75574418760000
C         1.32441720970000   -4.41103938950000   -0.03737120990000
C         0.73331372300000   -4.89170099350000   -1.19129145020000
C         0.03093217880000   -4.03007030970000   -2.01887375730000
C        -0.11125573750000   -2.69677876050000   -1.68030622220000
C        -0.95100169100000   -0.23938520740000    0.00874981820000
C        -1.05985240860000    1.07822434990000    0.46533768160000
C        -2.29157344120000    1.67879376050000    0.59618180730000
C        -3.47421097890000    0.99976794470000    0.29476546590000
C        -4.73411663320000    1.70472752580000    0.43396913880000
C        -5.95735683630000    1.26619552760000    0.17296322760000
F        -6.31935470780000    0.06957831500000   -0.28013305060000
F        -7.05039047170000    2.01192988860000    0.33815166840000
C        -3.36577410700000   -0.33438077730000   -0.10228584690000
C        -2.13645389110000   -0.94101135940000   -0.23482349750000
C         2.38184911100000   -0.85202589400000    1.10110815920000
C         3.56906980800000   -0.23524445990000    1.46621829260000
C         3.89762436100000    1.00306900030000    0.94789802480000
H         1.21672014820000    1.45178583300000   -1.08202833080000
H         1.89833138840000   -5.05946882060000    0.60598640190000
H         0.83738618980000   -5.93297619820000   -1.45304025150000
H        -0.40457877000000   -4.39500247100000   -2.93618395370000
H        -0.64174524870000   -2.01914084900000   -2.33179120810000
H        -0.18032969900000    1.63577237820000    0.74504798580000
H        -2.33893912560000    2.69980471390000    0.94483205840000
H        -4.67936672930000    2.72311811910000    0.79099262480000
H        -4.24956658600000   -0.91644934050000   -0.30468457980000
H        -2.10200199850000   -1.98316853720000   -0.50911602350000
H         4.22438016510000   -0.72816629380000    2.16654481520000
H         4.81136010600000    1.49428948950000    1.24106032680000
$end

$rem
BASIS = 6-31G*
GUI = 2
METHOD = B3LYP
PRINT_ORBITALS false
MOLDEN_FORMAT false
--------------------------------------------------------------
 ----------------------------------------------------------------
             Standard Nuclear Orientation (Angstroms)
    I     Atom           X                Y                Z
 ----------------------------------------------------------------
    1      F      -2.3802534540    -3.9557477704    -0.3510283382
    2      C      -3.3108815209    -3.0301616912    -0.6585800484
    3      F      -3.3222438491    -2.9549805052    -2.0026518300
    4      F      -4.4912277794    -3.5455070567    -0.2962176953
    5      C      -3.0137965251    -1.7050810656    -0.0190801923
    6      C      -1.8357914876    -1.0649088437    -0.3796382482
    7      C      -1.4940355931     0.1451463159     0.2127742667
    8      N      -0.2953246067     0.8025790603    -0.1018084941
    9      C      -0.4564777567     2.1600543882    -0.4542056318
   10      C      -1.2246909501     2.9949980356     0.3529044848
   11      S      -2.0276928023     2.3214404349     1.7873234246
   12      C      -1.3954669360     4.3323368399     0.0332275666
   13      C      -0.8069146853     4.8436626136    -1.1087544963
   14      C      -0.0857681484     4.0091319083    -1.9478885250
   15      C       0.0775159873     2.6725794238    -1.6324880147
   16      C       0.9507307510     0.1998506954     0.0167467354
   17      C       1.0798249496    -1.1237144683     0.4502508836
   18      C       2.3209713427    -1.7054939465     0.5768556789
   19      C       3.4933100714    -1.0011314631     0.2939160879
   20      C       4.7643807949    -1.6869398657     0.4271601567
   21      C       5.9812282971    -1.2230333600     0.1805351293
   22      F       6.3249604432    -0.0124742514    -0.2491465039
   23      F       7.0860212598    -1.9529108860     0.3381447507
   24      C       3.3640491929     0.3379040724    -0.0797636847
   25      C       2.1252080002     0.9258141746    -0.2079405007
   26      C      -2.3975304240     0.7359454692     1.1022048515
   27      C      -3.5758347643     0.0925847663     1.4499168271
   28      C      -3.8805614495    -1.1416178079     0.9077822746
   29      H      -1.1822628363    -1.5080703915    -1.1156040705
   30      H      -1.9835984062     4.9592309409     0.6850345841
   31      H      -0.9274773254     5.8875552618    -1.3523737772
   32      H       0.3480139130     4.3978607102    -2.8561981127
   33      H       0.6227700127     2.0158930496    -2.2931740227
   34      H       0.2085830622    -1.7010881951     0.7152697660
   35      H       2.3840552774    -2.7316564049     0.9074232193
   36      H       4.7252786914    -2.7123709666     0.7656048420
   37      H       4.2387543421     0.9384730235    -0.2670229760
   38      H       2.0743024660     1.9719987934    -0.4637163319
   39      H      -4.2429736529     0.5616093117     2.1554680413
   40      H      -4.7872129202    -1.6535084342     1.1872564478
 ----------------------------------------------------------------
 Molecular Point Group                 C1    NOp =  1
 Largest Abelian Subgroup              C1    NOp =  1
 Nuclear Repulsion Energy =        2665.39522005 hartrees
 There are      103 alpha and      103 beta electrons
 Requested basis set is 6-31G(d)
 There are 137 shells and 448 basis functions

 Total QAlloc Memory Limit   4000 MB
 Mega-Array Size       188 MB
 MEM_STATIC part       192 MB
 A cutoff of  1.0D-08 yielded   4117 shell pairs
 There are     46585 function pairs
 Smallest overlap matrix eigenvalue = 3.60E-04

 Scale SEOQF with 1.000000e-02/1.000000e-02/1.000000e-01

 Standard Electronic Orientation quadrupole field applied
 Nucleus-field energy     =    -0.0000000046 hartrees
 Guess from superposition of atomic densities
 Warning:  Energy on first SCF cycle will be non-variational
 SAD guess density has 206.000000 electrons

 -----------------------------------------------------------------------
  General SCF calculation program by
  Eric Jon Sundstrom, Paul Horn, Yuezhi Mao, Dmitri Zuev, Alec White,
  David Stuck, Shaama M.S., Shane Yost, Joonho Lee, David Small,
  Daniel Levine, Susi Lehtola, Hugh Burton, Evgeny Epifanovsky,
  Bang C. Huynh
 -----------------------------------------------------------------------
 Exchange:     0.2000 Hartree-Fock + 0.0800 Slater + 0.7200 B88
 Correlation:  0.1900 VWN1RPA + 0.8100 LYP
 Using SG-1 standard quadrature grid
 A restricted SCF calculation will be
 performed using DIIS
 SCF converges when DIIS error is below 1.0e-05
 ---------------------------------------
  Cycle       Energy         DIIS error
 ---------------------------------------
    1   -1766.6191878792      3.82e-02  
    2   -1759.1813941075      4.10e-03  
    3   -1758.8198905547      5.74e-03  
    4   -1759.5508768524      1.08e-03  
    5   -1759.5745561477      5.29e-04  
    6   -1759.5813080391      1.93e-04  
    7   -1759.5822115867      5.76e-05  
    8   -1759.5822903974      1.88e-05  
    9   -1759.5822992914      4.89e-06  Convergence criterion met
 ---------------------------------------
 SCF time:   CPU 153.42s  wall 154.00s 
 SCF   energy in the final basis set =    -1759.5822992914
 Total energy in the final basis set =    -1759.5822992914
 
 --------------------------------------------------------------
 
                    Orbital Energies (a.u.)
 --------------------------------------------------------------
 
 Alpha MOs
 -- Occupied --
-88.9058 -24.7387 -24.7286 -24.7280 -24.7207 -24.7198 -14.3836 -10.4325
-10.3488 -10.2525 -10.2455 -10.2415 -10.2396 -10.2345 -10.2224 -10.2156
-10.2143 -10.2136 -10.2072 -10.2048 -10.2030 -10.2024 -10.1981 -10.1970
-10.1906 -10.1881 -10.1864 -10.1860  -7.9668  -5.9318  -5.9282  -5.9218
 -1.3076  -1.2788  -1.2186  -1.2183  -1.2116  -0.9991  -0.8925  -0.8833
 -0.8607  -0.8314  -0.8034  -0.7851  -0.7839  -0.7614  -0.7514  -0.7371
 -0.7198  -0.6833  -0.6607  -0.6496  -0.6311  -0.6243  -0.6166  -0.6066
 -0.5947  -0.5812  -0.5807  -0.5702  -0.5668  -0.5510  -0.5280  -0.5216
 -0.5128  -0.5034  -0.4990  -0.4856  -0.4715  -0.4676  -0.4616  -0.4589
 -0.4560  -0.4538  -0.4523  -0.4447  -0.4354  -0.4282  -0.4268  -0.4236
 -0.4180  -0.4160  -0.4135  -0.4067  -0.3966  -0.3960  -0.3924  -0.3867
 -0.3832  -0.3782  -0.3702  -0.3622  -0.3520  -0.3425  -0.3392  -0.3134
 -0.2928  -0.2759  -0.2675  -0.2560  -0.2520  -0.2280  -0.1900
 -- Virtual --
 -0.0375  -0.0341  -0.0217  -0.0183  -0.0074   0.0019   0.0193   0.0656
  0.0741   0.0905   0.1039   0.1150   0.1183   0.1217   0.1319   0.1377
  0.1423   0.1446   0.1496   0.1629   0.1669   0.1722   0.1806   0.1827
  0.1906   0.1935   0.2023   0.2090   0.2198   0.2223   0.2343   0.2350
  0.2557   0.2618   0.2739   0.2794   0.2893   0.3019   0.3056   0.3172
  0.3245   0.3393   0.3424   0.3496   0.3662   0.3688   0.3780   0.3836
  0.4151   0.4213   0.4273   0.4392   0.4765   0.4789   0.4875   0.4893
  0.4997   0.5014   0.5110   0.5160   0.5185   0.5305   0.5399   0.5438
  0.5474   0.5560   0.5598   0.5616   0.5646   0.5731   0.5760   0.5791
  0.5834   0.5868   0.5880   0.5916   0.5946   0.5985   0.6014   0.6038
  0.6128   0.6149   0.6166   0.6281   0.6338   0.6406   0.6456   0.6500
  0.6619   0.6636   0.6797   0.6863   0.7048   0.7060   0.7238   0.7327
  0.7612   0.7755   0.7805   0.7924   0.8030   0.8110   0.8187   0.8213
  0.8256   0.8267   0.8366   0.8382   0.8423   0.8528   0.8568   0.8722
  0.8779   0.8860   0.8922   0.8980   0.9020   0.9147   0.9242   0.9260
  0.9449   0.9500   0.9549   0.9651   0.9743   0.9896   0.9988   1.0010
  1.0045   1.0247   1.0362   1.0501   1.0712   1.0770   1.0774   1.0867
  1.0981   1.1041   1.1062   1.1144   1.1285   1.1404   1.1451   1.1550
  1.1636   1.1658   1.1803   1.1882   1.1968   1.2092   1.2202   1.2247
  1.2333   1.2472   1.2521   1.2640   1.2822   1.2917   1.3097   1.3232
  1.3295   1.3393   1.3454   1.3538   1.3633   1.3691   1.3723   1.3822
  1.3864   1.3958   1.4082   1.4167   1.4247   1.4277   1.4333   1.4458
  1.4522   1.4622   1.4664   1.4713   1.4740   1.4786   1.4950   1.4957
  1.5177   1.5244   1.5339   1.5479   1.5638   1.5934   1.6072   1.6188
  1.6271   1.6575   1.6698   1.6751   1.7134   1.7325   1.7337   1.7406
  1.7594   1.7796   1.7846   1.7880   1.7976   1.8023   1.8065   1.8141
  1.8326   1.8376   1.8420   1.8526   1.8609   1.8663   1.8696   1.8754
  1.8848   1.8871   1.9126   1.9142   1.9320   1.9350   1.9467   1.9477
  1.9696   1.9753   1.9772   1.9825   1.9921   1.9982   2.0176   2.0241
  2.0340   2.0406   2.0490   2.0503   2.0672   2.0772   2.0800   2.0929
  2.0936   2.1024   2.1057   2.1204   2.1377   2.1468   2.1475   2.1550
  2.1624   2.1709   2.1752   2.2049   2.2102   2.2128   2.2340   2.2429
  2.2569   2.2616   2.2834   2.2890   2.3004   2.3106   2.3193   2.3266
  2.3375   2.3614   2.3661   2.4145   2.4284   2.4348   2.4612   2.4786
  2.5004   2.5167   2.5283   2.5666   2.5717   2.5966   2.6144   2.6282
  2.6348   2.6391   2.6499   2.6650   2.6791   2.6897   2.6929   2.7117
  2.7202   2.7408   2.7434   2.7512   2.7606   2.7774   2.7929   2.8089
  2.8173   2.8415   2.8595   2.8884   2.9115   2.9337   2.9420   2.9683
  2.9837   3.0264   3.0426   3.0617   3.0926   3.1233   3.1509   3.2040
  3.2371   3.3309   3.3855   3.4504   3.4874   3.9586   4.0822   4.0839
  4.0916   4.1071   4.1164   4.1232   4.1324   4.1606   4.1703   4.1993
  4.2666   4.2886   4.3149   4.3356   4.3484   4.3627   4.3809   4.3951
  4.4797   4.5175   4.6947   4.7397   4.7639   4.8208   4.8384   5.2852
  5.6475
 --------------------------------------------------------------
 
          Ground-State Mulliken Net Atomic Charges

     Atom                 Charge (a.u.)
  ----------------------------------------
      1 F                    -0.267004
      2 C                     0.780504
      3 F                    -0.266515
      4 F                    -0.265281
      5 C                    -0.020666
      6 C                    -0.185827
      7 C                     0.269502
      8 N                    -0.693094
      9 C                     0.263752
     10 C                    -0.105502
     11 S                     0.185664
     12 C                    -0.175606
     13 C                    -0.110655
     14 C                    -0.145542
     15 C                    -0.143320
     16 C                     0.358871
     17 C                    -0.198112
     18 C                    -0.206307
     19 C                     0.199696
     20 C                    -0.298672
     21 C                     0.535749
     22 F                    -0.239353
     23 F                    -0.251986
     24 C                    -0.206154
     25 C                    -0.197003
     26 C                    -0.091510
     27 C                    -0.181932
     28 C                    -0.147217
     29 H                     0.174530
     30 H                     0.149962
     31 H                     0.138266
     32 H                     0.140263
     33 H                     0.155924
     34 H                     0.152324
     35 H                     0.130884
     36 H                     0.156915
     37 H                     0.139362
     38 H                     0.151150
     39 H                     0.155824
     40 H                     0.158117
  ----------------------------------------
  Sum of atomic charges =     0.000000

 -----------------------------------------------------------------
                    Cartesian Multipole Moments
 -----------------------------------------------------------------
    Charge (ESU x 10^10)
                 0.0000
    Dipole Moment (Debye)
         X      -1.3167      Y       2.5187      Z      -0.1071
       Tot       2.8441
    Quadrupole Moments (Debye-Ang)
        XX    -170.1329     XY      -4.8911     YY    -153.5227
        XZ      -7.0943     YZ      -8.0407     ZZ    -160.4090
    Octopole Moments (Debye-Ang^2)
       XXX     -80.7458    XXY      -7.0009    XYY      30.1512
       YYY       1.3064    XXZ      25.4863    XYZ      -0.6657
       YYZ     -13.2431    XZZ       8.1198    YZZ     -20.2257
       ZZZ     -27.8017
    Hexadecapole Moments (Debye-Ang^3)
      XXXX  -10099.5805   XXXY     249.0088   XXYY   -2570.0915
      XYYY     -60.5296   YYYY   -5120.1216   XXXZ     -67.8526
      XXYZ     -14.7306   XYYZ      -5.3324   YYYZ     -61.0752
      XXZZ   -1734.9648   XYZZ      56.7970   YYZZ   -1052.6643
      XZZZ      28.3741   YZZZ      20.7978   ZZZZ   -1045.9918
 -----------------------------------------------------------------
Archival summary:
1\1\nia1977.scinet.local\SP\ProcedureUnspecified\6-31G*\1512112\rhickman\MonFeb716:19:582022MonFeb716:19:582022\0\\#,ProcedureUnspecified,6-31G*,\\0,1\S\C,1,1.76634\C,2,1.3868,1,119.806\H,3,1.07836,2,119.204,1,-1.4157,0\C,3,1.38204,2,120.217,1,179.299,0\H,5,1.07803,3,120.517,2,178.973,0\C,5,1.38847,3,119.119,2,-2.06146,0\C,7,1.38835,5,121.059,3,1.68037,0\H,8,1.07942,7,120.098,5,-178.849,0\C,8,1.38996,7,119.957,5,1.47301,0\N,10,1.40289,8,121.5,7,178.333,0\C,11,1.38924,10,122.952,8,-55.5242,0\C,12,1.39872,11,121.317,10,0.708695,0\H,13,1.07827,12,120.55,11,-0.835701,0\C,13,1.37657,12,120.773,11,-179.325,0\H,15,1.07994,13,118.843,12,-179.568,0\C,15,1.39662,13,121.672,12,0.674228,0\C,17,1.3962,15,117.4,13,2.19494,0\H,18,1.07743,17,120.394,15,177.32,0\C,18,1.37724,17,121.17,15,-2.16627,0\H,20,1.0782,18,118.604,17,177.804,0\C,11,1.4117,10,114.146,8,128.934,0\C,22,1.39147,11,121.45,10,-127.787,0\H,23,1.07937,22,119.215,11,0.294317,0\C,23,1.38294,22,120.251,11,-179.458,0\H,25,1.07903,23,119.518,22,178.936,0\C,25,1.38587,23,120.353,22,-1.40889,0\H,27,1.0787,25,120.275,23,179.557,0\C,27,1.38274,25,119.925,23,-1.62711,0\H,29,1.07877,27,121.076,25,-178.294,0\C,29,1.38558,27,119.67,25,2.00771,0\C,17,1.45042,15,118.59,13,-178.917,0\H,32,1.08055,17,116.473,15,-1.40679,0\C,32,1.32542,17,128.46,15,178.204,0\F,34,1.32975,32,128.03,17,0.025683,0\F,34,1.33347,32,123.166,17,-179.86,0\C,7,1.50102,5,121.272,3,-178.772,0\F,37,1.33795,7,113.531,5,3.14655,0\F,37,1.34622,7,112.193,5,123.993,0\F,37,1.3481,7,111.856,5,-117.316,0\\\@

 Total job time:  154.30s(wall), 153.91s(cpu) 
 Mon Feb  7 16:19:58 2022

        *************************************************************
        *                                                           *
        *  Thank you very much for using Q-Chem.  Have a nice day.  *
        *                                                           *
        *************************************************************


