53
 energy: -62.366890696851 gnorm: 0.000036837490 xtb: 6.4.1 (23d549d)
C         3.07651146290000    0.06858522710000    2.81054371840000
C         1.86335903160000    0.28146915390000    2.30658323990000
C         1.35225988300000   -0.32875433570000    1.10966761610000
S         2.25854832100000   -1.56486621820000    0.29352334180000
C         1.02162669030000   -1.73605734180000   -0.91338520300000
C         1.18304037550000   -2.67040568880000   -1.99388355330000
C         2.18046066480000   -3.54502202040000   -2.10024818400000
C        -0.03397802680000   -0.87758871920000   -0.68185423850000
C        -1.25927642420000   -0.87565340190000   -1.54709054610000
C        -2.14275542130000   -2.10383713580000   -1.27894186960000
C        -2.78577375870000   -2.09845383420000    0.10891083260000
C        -4.01343643570000   -1.19297361730000    0.19389083520000
C        -4.69006683500000   -1.22971987390000    1.56486274670000
C        -3.87268344700000   -0.55075207340000    2.65770897630000
C         0.15690924350000   -0.07261887920000    0.46958814260000
C        -0.77337813560000    1.00851462930000    0.93150822560000
C        -0.24199358880000    2.40085913250000    0.56280356160000
C        -0.17198797040000    2.61066004710000   -0.94758678280000
C         0.40476030710000    3.97169700260000   -1.33749785040000
C         1.90231301360000    4.09472935630000   -1.06352762830000
C         2.45525619460000    5.42571703980000   -1.55837890080000
H         3.40435463770000    0.54809898280000    3.71585016430000
H         3.77815851440000   -0.59179523990000    2.32846885010000
H         1.18511142000000    0.95572048640000    2.81255527760000
H         0.42324001490000   -2.62985212260000   -2.76300510420000
H         2.95002561230000   -3.61529375940000   -1.34943632040000
H         2.25619115920000   -4.21641109630000   -2.93717681050000
H        -0.95839681540000   -0.88208261120000   -2.59772745530000
H        -1.83592710360000    0.03302057510000   -1.38382846680000
H        -1.52757979320000   -3.00055909840000   -1.37835372520000
H        -2.92628566830000   -2.15115415220000   -2.03932733240000
H        -2.03860518800000   -1.79392649870000    0.84283558960000
H        -3.09509671670000   -3.11694685330000    0.35642066820000
H        -4.73524633990000   -1.51686150650000   -0.56086948420000
H        -3.74052900850000   -0.16164477210000   -0.03855416980000
H        -4.87649047020000   -2.26927378190000    1.84410731070000
H        -5.65909619110000   -0.72985303880000    1.49050803810000
H        -2.91723949040000   -1.04930810660000    2.79852857760000
H        -4.41116367630000   -0.57776528750000    3.60245714860000
H        -3.68512617580000    0.48996117830000    2.40173386650000
H        -0.89245902710000    0.94892020170000    2.01611921830000
H        -1.75845201880000    0.87193757470000    0.48801214350000
H         0.75253527720000    2.52299479670000    0.99327919700000
H        -0.89593988130000    3.15854016600000    1.00218052300000
H        -1.17976339640000    2.52519598820000   -1.36304743710000
H         0.43866000910000    1.82247627970000   -1.39390483220000
H        -0.12829645360000    4.75956360050000   -0.79934939070000
H         0.23434724460000    4.12987396180000   -2.40551649170000
H         2.42616461040000    3.27566134220000   -1.56185916200000
H         2.09338343310000    4.00674614590000    0.00725805520000
H         2.30443152930000    5.52767269030000   -2.63108982620000
H         3.52090609310000    5.49788767060000   -1.35355495520000
H         1.95376924920000    6.25464004120000   -1.06311678390000
