24
 energy: -42.130430880168 gnorm: 0.000148489354 xtb: 6.4.1 (23d549d)
C         2.69625351050000   -2.60356686460000   -0.09032021920000
C         2.76285898460000   -1.28607512340000    0.05564280150000
C         1.64289745910000   -0.34987237560000    0.03710036420000
C         0.31841723200000   -0.77275564760000    0.03866157810000
C        -0.72288158020000    0.15339193230000    0.01831334870000
C        -2.12823903400000   -0.22688962390000    0.01937960020000
C        -2.65579300280000   -1.44125044030000   -0.00074144610000
F        -2.02700401380000   -2.61083618500000   -0.02698266000000
F        -3.96996357480000   -1.66357545620000    0.00092923050000
C        -0.42279082390000    1.51213443510000   -0.00185538220000
C         0.89906720710000    1.95095917310000   -0.00069883870000
O         1.07072788860000    3.30133594370000   -0.02029055880000
C         2.38082846580000    3.81438144700000   -0.02227556890000
C         1.92635101850000    1.01811118210000    0.02189624010000
H         3.58354449550000   -3.21271690480000   -0.06633560880000
H         1.76934106510000   -3.12828958340000   -0.24402116870000
H         3.73340804830000   -0.82382061170000    0.19127073890000
H         0.10212764090000   -1.82566662980000    0.06620565280000
H        -2.84403570900000    0.58212388890000    0.03446575390000
H        -1.20582196890000    2.25350022450000   -0.01743439120000
H         2.27226512860000    4.89754421720000   -0.04323057120000
H         2.93852273110000    3.49053489800000   -0.90699218200000
H         2.92805443300000    3.52419891840000    0.88049687510000
H         2.95881335600000    1.33190247350000    0.02377549740000
