53
 energy: -62.362523923457 gnorm: 0.000022574240 xtb: 6.4.1 (23d549d)
C         2.45354708990000    0.87261678600000    3.01181034970000
C         2.15943605350000   -0.32706263120000    2.51674351550000
C         1.46409231310000   -0.65227601000000    1.29605013840000
S         1.71648277220000   -2.26246915670000    0.68301694160000
C         0.65145650390000   -1.97900801680000   -0.65989559920000
C         0.44324545200000   -3.00323483390000   -1.64791625970000
C         0.93707559380000   -4.23660472320000   -1.57838464770000
C         0.11765852050000   -0.70941571150000   -0.60741910610000
C        -0.90847862580000   -0.19471153590000   -1.57189663010000
C        -2.33322599800000   -0.39797280270000   -1.03202948950000
C        -2.73711791120000   -1.86832148370000   -0.98910065010000
C        -4.09698765060000   -2.10343607900000   -0.33042022940000
C        -4.16945794580000   -1.71627517720000    1.14859898160000
C        -3.13112098310000   -2.42501159020000    2.01093726300000
C         0.58072298770000    0.04592291180000    0.50295236180000
C         0.15706580170000    1.45790740910000    0.76493172300000
C         1.06656972520000    2.45383699980000    0.03389307450000
C         0.66743875700000    3.89618271150000    0.33323442180000
C         1.61105874500000    4.92815105190000   -0.28631649110000
C         1.66485231520000    4.91775687040000   -1.81511706140000
C         0.32406746690000    5.23346239560000   -2.46780367800000
H         2.98143396160000    0.95991853350000    3.94628730010000
H         2.21032876640000    1.79587176650000    2.52075867310000
H         2.49563575030000   -1.20265096930000    3.06065200730000
H        -0.16272643010000   -2.71753698690000   -2.49684316070000
H         1.53878626370000   -4.55660895470000   -0.74370787620000
H         0.75426340220000   -4.96226512910000   -2.35089644050000
H        -0.81270611560000   -0.70034864150000   -2.53364434470000
H        -0.74269661710000    0.87002829660000   -1.74346333570000
H        -3.03480406680000    0.15110605420000   -1.66514879880000
H        -2.38978635590000    0.02140235110000   -0.02702408050000
H        -1.97664733130000   -2.44007778850000   -0.45696891400000
H        -2.77909829740000   -2.25474420750000   -2.01099016710000
H        -4.34015037020000   -3.16496516430000   -0.42277794320000
H        -4.86067039030000   -1.54217961040000   -0.87556440300000
H        -5.16765531690000   -1.97078026470000    1.51394179050000
H        -4.05412300750000   -0.63629540570000    1.25781815890000
H        -3.17854830250000   -3.50098619550000    1.85728526660000
H        -3.31425951350000   -2.22054494800000    3.06360429930000
H        -2.12556670560000   -2.08652593790000    1.77375359910000
H         0.18291912190000    1.65053337820000    1.83887688450000
H        -0.86961423620000    1.60747583500000    0.42771817210000
H         1.00513888750000    2.26466986250000   -1.03896038470000
H         2.10424375630000    2.28893192950000    0.33255581530000
H         0.66647054760000    4.04351336730000    1.41699002670000
H        -0.35191451530000    4.07144820770000   -0.01546345210000
H         2.62005355450000    4.75533728100000    0.09714380020000
H         1.29946580040000    5.92237307190000    0.04435187350000
H         2.02259427410000    3.94843624420000   -2.16636398970000
H         2.39542079830000    5.66623369200000   -2.13191130050000
H        -0.40239663720000    4.44884184680000   -2.27257437840000
H         0.44140513670000    5.32250920900000   -3.54557602610000
H        -0.07260223050000    6.17260702990000   -2.08764016500000
