
Running Job 1 of 1 tidas/B035/conf-1/spe_input.inp
qchem tidas/B035/conf-1/spe_input.inp_151260.0 /home/a/aspuru/seifridm/acdc_laser/descriptor_computation/qchem151260/ 0
/gpfs/fs1/scinet/niagara/software/commercial/qc54/exe/qcprog.exe_s tidas/B035/conf-1/spe_input.inp_151260.0 /home/a/aspuru/seifridm/acdc_laser/descriptor_computation/qchem151260/
                  Welcome to Q-Chem
     A Quantum Leap Into The Future Of Chemistry


 Q-Chem 5.4, Q-Chem, Inc., Pleasanton, CA (2021)

 License issued to: SRG Alan Aspuru-Guzik, University of Toronto

 E. Epifanovsky,  A. T. B. Gilbert,  Xintian Feng,  Joonho Lee,  Yuezhi Mao,  
 N. Mardirossian,  P. Pokhilko,  A. White,  M. Wormit,  M. P. Coons,  
 A. L. Dempwolff,  Zhengting Gan,  D. Hait,  P. R. Horn,  L. D. Jacobson,  
 I. Kaliman,  J. Kussmann,  A. W. Lange,  Ka Un Lao,  D. S. Levine,  Jie Liu,  
 S. C. McKenzie,  A. F. Morrison,  K. Nanda,  F. Plasser,  D. R. Rehn,  
 M. L. Vidal,  Zhi-Qiang You,  Ying Zhu,  B. Alam,  B. Albrecht,  
 A. Aldossary,  E. Alguire,  J. H. Andersen,  D. Barton,  K. Begam,  A. Behn,  
 Y. A. Bernard,  E. J. Berquist,  H. Burton,  A. Carreras,  K. Carter-Fenk,  
 Romit Chakraborty,  A. D. Chien,  K. D. Closser,  V. Cofer-Shabica,  
 S. Dasgupta,  Jia Deng,  M. de Wergifosse,  M. Diedenhofen,  Hainam Do,  
 S. Ehlert,  Po-Tung Fang,  S. Fatehi,  Qingguo Feng,  T. Friedhoff,  
 J. Gayvert,  Qinghui Ge,  G. Gidofalvi,  M. Goldey,  J. Gomes,  
 C. Gonzalez-Espinoza,  S. Gulania,  A. Gunina,  M. W. D. Hanson-Heine,  
 P. H. P. Harbach,  A. W. Hauser,  M. F. Herbst,  M. Hernandez Vera,  
 M. Hodecker,  Z. C. Holden,  S. Houck,  Xunkun Huang,  Kerwin Hui,  
 B. C. Huynh,  M. Ivanov,  Hyunjun Ji,  Hanjie Jiang,  B. Kaduk,  S. Kaehler,  
 K. Khistyaev,  Jaehoon Kim,  P. Klunzinger,  Z. Koczor-Benda,  
 Joong Hoon Koh,  D. Kosenkov,  L. Koulias,  T. Kowalczyk,  C. M. Krauter,  
 K. Kue,  A. Kunitsa,  T. Kus,  A. Landau,  K. V. Lawler,  D. Lefrancois,  
 S. Lehtola,  Rain Li,  Yi-Pei Li,  Jiashu Liang,  M. Liebenthal,  
 Hung-Hsuan Lin,  You-Sheng Lin,  Fenglai Liu,  Kuan-Yu Liu,  
 M. Loipersberger,  A. Luenser,  A. Manjanath,  P. Manohar,  E. Mansoor,  
 S. F. Manzer,  Shan-Ping Mao,  A. V. Marenich,  T. Markovich,  S. Mason,  
 S. A. Maurer,  P. F. McLaughlin,  M. F. S. J. Menger,  J.-M. Mewes,  
 S. A. Mewes,  P. Morgante,  J. W. Mullinax,  K. J. Oosterbaan,  G. Paran,  
 Alexander C. Paul,  Suranjan K. Paul,  F. Pavosevic,  Zheng Pei,  S. Prager,  
 E. I. Proynov,  E. Ramos,  B. Rana,  A. E. Rask,  A. Rettig,  R. M. Richard,  
 F. Rob,  E. Rossomme,  T. Scheele,  M. Scheurer,  M. Schneider,  
 N. Sergueev,  S. M. Sharada,  W. Skomorowski,  D. W. Small,  C. J. Stein,  
 Yu-Chuan Su,  E. J. Sundstrom,  Zhen Tao,  J. Thirman,  T. Tsuchimochi,  
 N. M. Tubman,  S. P. Veccham,  O. Vydrov,  J. Wenzel,  J. Witte,  A. Yamada,  
 Kun Yao,  S. Yeganeh,  S. R. Yost,  A. Zech,  Igor Ying Zhang,  Xing Zhang,  
 Yu Zhang,  D. Zuev,  A. Aspuru-Guzik,  A. T. Bell,  N. A. Besley,  
 K. B. Bravaya,  B. R. Brooks,  D. Casanova,  Jeng-Da Chai,  S. Coriani,  
 C. J. Cramer,  A. E. DePrince, III,  R. A. DiStasio Jr.,  A. Dreuw,  
 B. D. Dunietz,  T. R. Furlani,  W. A. Goddard III,  S. Grimme,  
 S. Hammes-Schiffer,  T. Head-Gordon,  W. J. Hehre,  Chao-Ping Hsu,  
 T.-C. Jagau,  Yousung Jung,  A. Klamt,  Jing Kong,  D. S. Lambrecht,  
 WanZhen Liang,  N. J. Mayhall,  C. W. McCurdy,  J. B. Neaton,  T. Neudecker,  
 C. Ochsenfeld,  J. A. Parkhill,  R. Peverati,  V. A. Rassolov,  Yihan Shao,  
 L. V. Slipchenko,  R. P. Steele,  J. E. Subotnik,  A. J. W. Thom,  
 A. Tkatchenko,  D. G. Truhlar,  T. Van Voorhis,  T. A. Wesolowski,  
 K. B. Whaley,  H. L. Woodcock III,  P. M. Zimmerman,  S. Faraji,  
 P. M. W. Gill,  M. Head-Gordon,  J. M. Herbert,  A. I. Krylov

 Additional authors since Version 5.4.0: 
 Chandrima Chakravarty,  L. Cunha,  R. Kang,  Yongbin Kim,  S. Kotaru,  
 Shaozhi Li,  Xiangyuan Li,  F. Matz,  A. Molle,  V. Parravicini,  
 Haisheng Ren,  Hengyuan Shen,  Yingli Su,  Hung-Yi Tsai,  C. Utku,  
 Fang Wang,  Jeff Yang,  F. Zeller

 Contributors to earlier versions of Q-Chem not listed above: 
 R. D. Adamson,  B. Austin,  R. Baer,  J. Baker,  G. J. O. Beran,  
 K. Brandhorst,  S. T. Brown,  E. F. C. Byrd,  Arup K. Chakraborty,  
 G. K. L. Chan,  Chun-Min Chang,  Yunqing Chen,  C.-L. Cheng,  
 Siu Hung Chien,  D. M. Chipman,  D. L. Crittenden,  H. Dachsel,  
 R. J. Doerksen,  A. D. Dutoi,  R. G. Edgar,  J. Fosso-Tande,  
 L. Fusti-Molnar,  D. Ghosh,  A. Ghysels,  A. Golubeva-Zadorozhnaya,  
 J. Gonthier,  M. S. Gordon,  S. R. Gwaltney,  G. Hawkins,  J. E. Herr,  
 A. Heyden,  S. Hirata,  E. G. Hohenstein,  G. Kedziora,  F. J. Keil,  
 C. Kelley,  Jihan Kim,  R. A. King,  R. Z. Khaliullin,  P. P. Korambath,  
 W. Kurlancheek,  A. Laurent,  A. M. Lee,  M. S. Lee,  S. V. Levchenko,  
 Ching Yeh Lin,  D. Liotard,  E. Livshits,  R. C. Lochan,  I. Lotan,  
 L. A. Martinez-Martinez,  P. E. Maslen,  N. Nair,  D. P. O'Neill,  
 D. Neuhauser,  E. Neuscamman,  C. M. Oana,  R. Olivares-Amaya,  R. Olson,  
 T. M. Perrine,  B. Peters,  P. A. Pieniazek,  A. Prociuk,  Y. M. Rhee,  
 J. Ritchie,  M. A. Rohrdanz,  E. Rosta,  N. J. Russ,  H. F. Schaefer III,  
 M. W. Schmidt,  N. E. Schultz,  S. Sharma,  N. Shenvi,  C. D. Sherrill,  
 A. C. Simmonett,  A. Sodt,  T. Stein,  D. Stuck,  K. S. Thanthiriwatte,  
 V. Vanovschi,  L. Vogt,  Tao Wang,  A. Warshel,  M. A. Watson,  
 C. F. Williams,  Q. Wu,  X. Xu,  Jun Yang,  W. Zhang,  Yan Zhao

   Please cite Q-Chem as follows:
  "Software for the frontiers of quantum chemistry:
   An overview of developments in the Q-Chem 5 package"
   J. Chem. Phys. 155, 084801 (2021)
   https://doi.org/10.1063/5.0055522 (open access)

 Q-Chem 5.4.2 for Intel X86 EM64T Linux

 Parts of Q-Chem use Armadillo 9.900.5 (Nocturnal Misbehaviour).
 http://arma.sourceforge.net/

 Q-Chem begins on Fri Aug 12 13:13:07 2022  

 Host: 
0

     Scratch files written to /home/a/aspuru/seifridm/acdc_laser/descriptor_computation/qchem151260//
 Dec1321 |scratch|qcdevops|jenkins|workspace|build_RNUM 6959   
 Processing $rem in /gpfs/fs1/scinet/niagara/software/commercial/qc54/config/preferences:
 Processing $rem in /home/a/aspuru/seifridm/.qchemrc:

 Checking the input file for inconsistencies... 	...done.

--------------------------------------------------------------
User input:
--------------------------------------------------------------
$molecule
0 1
C           -1.33614878370000       -3.82200048170000        0.32975882780000
C           -1.31055205340000       -2.57831307810000       -0.13143283430000
C           -0.16500591960000       -1.67570293470000       -0.02608776650000
C            1.13375541310000       -2.18131564210000       -0.09580781670000
C            2.23348625580000       -1.35657590240000       -0.05517111950000
C            2.06954130110000        0.02619609340000        0.05983187600000
O            3.21059091860000        0.76217466030000        0.08708885750000
C            3.10954288110000        2.16441884590000        0.16782049560000
C            0.78639783140000        0.54806011180000        0.14130489110000
C           -0.33030463290000       -0.28609255940000        0.09669802320000
C           -1.67110832950000        0.27445280650000        0.23724996770000
C           -2.06053896360000        1.49619186660000       -0.08985902190000
F           -1.33269848000000        2.46292819140000       -0.64145398710000
F           -3.30478691780000        1.94162189810000        0.08311462670000
H           -2.20173929370000       -4.45047633900000        0.20909925290000
H           -0.50365583010000       -4.25424563180000        0.85893673030000
H           -2.18255253360000       -2.18286349120000       -0.63590330140000
H            1.27482354640000       -3.24497643880000       -0.21065583490000
H            3.23428128020000       -1.75303494800000       -0.11717509420000
H            4.13295043360000        2.53461607130000        0.13630127060000
H            2.64048750340000        2.48009204000000        1.10518965720000
H            2.54855437470000        2.57627405070000       -0.67670092750000
H            0.63973515520000        1.60793479510000        0.26181894350000
H           -2.43788560500000       -0.36190994770000        0.65212473270000
$end

$rem
BASIS = 6-31G*
GUI = 2
METHOD = B3LYP
PRINT_ORBITALS false
MOLDEN_FORMAT false
$end
--------------------------------------------------------------
 ----------------------------------------------------------------
             Standard Nuclear Orientation (Angstroms)
    I     Atom           X                Y                Z
 ----------------------------------------------------------------
    1      C      -1.9368051876    -3.5267341573     0.2042070791
    2      C      -1.7313170186    -2.2834706560    -0.2107408433
    3      C      -0.4624866397    -1.5663764637    -0.0927408948
    4      C       0.7451235636    -2.2565843410    -0.2048871286
    5      C       1.9562100757    -1.6070502558    -0.1536051812
    6      C       2.0022691889    -0.2209226070     0.0157781972
    7      O       3.2407709961     0.3352866049     0.0496339185
    8      C       3.3514994925     1.7326435879     0.1843548209
    9      C       0.8126759612     0.4825523043     0.1399879852
   10      C      -0.4166467461    -0.1735982372     0.0846979005
   11      C      -1.6567293613     0.5743459243     0.2704265949
   12      C      -1.8631835716     1.8524198970    -0.0038112952
   13      F      -1.0059265955     2.7210477828    -0.5321899187
   14      F      -3.0246084079     2.4709637414     0.2082656483
   15      H      -2.8880570399    -4.0140473974     0.0760146976
   16      H      -1.1717609387    -4.0987028197     0.7016694261
   17      H      -2.5406147800    -1.7429524469    -0.6841675688
   18      H       0.7241537839    -3.3240103565    -0.3618156017
   19      H       2.8856396720    -2.1453449089    -0.2485495888
   20      H       4.4182762267     1.9472797072     0.1480064864
   21      H       2.9466164513     2.0773271960     1.1412176069
   22      H       2.8479121868     2.2565070096    -0.6338848684
   23      H       0.8276190620     1.5468464097     0.3025385389
   24      H      -2.5047961044     0.0433510777     0.6752145490
 ----------------------------------------------------------------
 Molecular Point Group                 C1    NOp =  1
 Largest Abelian Subgroup              C1    NOp =  1
 Nuclear Repulsion Energy =         850.47662703 hartrees
 There are       51 alpha and       51 beta electrons
 Requested basis set is 6-31G(d)
 There are 76 shells and 230 basis functions

 Total QAlloc Memory Limit   8000 MB
 Mega-Array Size       188 MB
 MEM_STATIC part       192 MB
 A cutoff of  1.0D-08 yielded   1880 shell pairs
 There are     18440 function pairs
 Smallest overlap matrix eigenvalue = 3.41E-04

 Scale SEOQF with 1.000000e-01/1.000000e-01/1.000000e+00

 Standard Electronic Orientation quadrupole field applied
 Nucleus-field energy     =     0.0000000357 hartrees
 Guess from superposition of atomic densities
 Warning:  Energy on first SCF cycle will be non-variational
 SAD guess density has 102.000000 electrons

 -----------------------------------------------------------------------
  General SCF calculation program by
  Eric Jon Sundstrom, Paul Horn, Yuezhi Mao, Dmitri Zuev, Alec White,
  David Stuck, Shaama M.S., Shane Yost, Joonho Lee, David Small,
  Daniel Levine, Susi Lehtola, Hugh Burton, Evgeny Epifanovsky,
  Bang C. Huynh
 -----------------------------------------------------------------------
 Exchange:     0.2000 Hartree-Fock + 0.0800 Slater + 0.7200 B88
 Correlation:  0.1900 VWN1RPA + 0.8100 LYP
 Using SG-1 standard quadrature grid
 A restricted SCF calculation will be
 performed using DIIS
 SCF converges when DIIS error is below 1.0e-05
 ---------------------------------------
  Cycle       Energy         DIIS error
 ---------------------------------------
    1    -703.1438899054      5.26e-02  
    2    -699.8043211557      5.83e-03  
    3    -699.6170193958      7.83e-03  
    4    -700.0170306878      1.59e-03  
    5    -700.0327567377      5.55e-04  
    6    -700.0342728219      2.82e-04  
    7    -700.0348168633      5.77e-05  
    8    -700.0348364089      1.98e-05  
    9    -700.0348393060      5.54e-06  Convergence criterion met
 ---------------------------------------
 SCF time:   CPU 45.61s  wall 46.00s 
 SCF   energy in the final basis set =     -700.0348393060
 Total energy in the final basis set =     -700.0348393060
 
 --------------------------------------------------------------
 
                    Orbital Energies (a.u.)
 --------------------------------------------------------------
 
 Alpha MOs
 -- Occupied --
-24.7434 -24.7345 -19.1796 -10.3569 -10.2465 -10.2408 -10.2061 -10.2016
-10.1899 -10.1889 -10.1870 -10.1848 -10.1819 -10.1785  -1.2846  -1.2240
 -1.0703  -0.8694  -0.8071  -0.7921  -0.7429  -0.7361  -0.6972  -0.6454
 -0.6166  -0.6063  -0.5749  -0.5575  -0.5393  -0.5215  -0.5158  -0.4866
 -0.4785  -0.4725  -0.4473  -0.4432  -0.4383  -0.4342  -0.4321  -0.4122
 -0.4059  -0.3986  -0.3827  -0.3583  -0.3490  -0.3355  -0.3259  -0.2932
 -0.2722  -0.2331  -0.2054
 -- Virtual --
 -0.0321  -0.0099   0.0527   0.0618   0.0987   0.1092   0.1147   0.1323
  0.1381   0.1504   0.1520   0.1595   0.1675   0.1713   0.1869   0.2009
  0.2056   0.2222   0.2652   0.2848   0.3049   0.3307   0.3550   0.3645
  0.3766   0.4242   0.4293   0.4699   0.4881   0.5054   0.5101   0.5190
  0.5306   0.5472   0.5525   0.5649   0.5674   0.5737   0.5777   0.5861
  0.5975   0.6103   0.6213   0.6267   0.6437   0.6538   0.6726   0.6895
  0.6962   0.7130   0.7296   0.7437   0.7850   0.7959   0.8225   0.8396
  0.8458   0.8572   0.8616   0.8673   0.8727   0.8880   0.9221   0.9340
  0.9388   0.9616   0.9674   0.9790   0.9862   1.0203   1.0351   1.0512
  1.0693   1.0822   1.1061   1.1188   1.1499   1.1748   1.1892   1.1928
  1.2116   1.2336   1.2427   1.2600   1.2843   1.3094   1.3488   1.3711
  1.3727   1.3883   1.4071   1.4241   1.4432   1.4469   1.4707   1.4879
  1.4978   1.5234   1.5420   1.5639   1.6440   1.6535   1.6849   1.6968
  1.7207   1.7638   1.7806   1.8054   1.8125   1.8366   1.8488   1.8581
  1.8682   1.8828   1.8965   1.9412   1.9574   1.9698   1.9820   2.0035
  2.0045   2.0221   2.0401   2.0491   2.0636   2.0816   2.1009   2.1147
  2.1325   2.1535   2.1736   2.2134   2.2312   2.2440   2.2630   2.2781
  2.3123   2.3213   2.3304   2.3636   2.3762   2.4443   2.4759   2.5235
  2.5315   2.5473   2.5723   2.6146   2.6343   2.6609   2.6816   2.6965
  2.7258   2.7709   2.8024   2.8368   2.9065   2.9654   3.0057   3.0289
  3.0684   3.1198   3.2076   3.3164   3.4838   4.0574   4.0917   4.1042
  4.1215   4.1362   4.2070   4.2583   4.2901   4.3807   4.4250   4.5431
  4.7630   4.8239   5.2418
 --------------------------------------------------------------
 
          Ground-State Mulliken Net Atomic Charges

     Atom                 Charge (a.u.)
  ----------------------------------------
      1 C                    -0.341944
      2 C                    -0.133516
      3 C                     0.094875
      4 C                    -0.189449
      5 C                    -0.170514
      6 C                     0.385973
      7 O                    -0.506012
      8 C                    -0.216053
      9 C                    -0.274771
     10 C                     0.126608
     11 C                    -0.319825
     12 C                     0.552609
     13 F                    -0.237736
     14 F                    -0.248283
     15 H                     0.141763
     16 H                     0.143718
     17 H                     0.137102
     18 H                     0.132880
     19 H                     0.136259
     20 H                     0.170007
     21 H                     0.152631
     22 H                     0.155191
     23 H                     0.136764
     24 H                     0.171723
  ----------------------------------------
  Sum of atomic charges =     0.000000

 -----------------------------------------------------------------
                    Cartesian Multipole Moments
 -----------------------------------------------------------------
    Charge (ESU x 10^10)
                 0.0000
    Dipole Moment (Debye)
         X       0.4273      Y       0.3616      Z       0.2955
       Tot       0.6330
    Quadrupole Moments (Debye-Ang)
        XX     -75.9136     XY       6.6074     YY     -74.3058
        XZ       0.5943     YZ       0.5823     ZZ     -81.4297
    Octopole Moments (Debye-Ang^2)
       XXX     -10.5753    XXY      19.2258    XYY      13.5539
       YYY      26.7193    XXZ      -1.5569    XYZ       2.0095
       YYZ       3.4862    XZZ      -5.5611    YZZ      20.9333
       ZZZ      -2.4419
    Hexadecapole Moments (Debye-Ang^3)
      XXXX   -1970.2145   XXXY      28.8892   XXYY    -590.8677
      XYYY     -32.2772   YYYY   -1766.0831   XXXZ       9.4584
      XXYZ       4.7195   XYYZ      -1.6472   YYYZ     -17.8052
      XXZZ    -360.0657   XYZZ     -27.0938   YYZZ    -333.3283
      XZZZ       2.7050   YZZZ      -9.1368   ZZZZ    -111.2483
 -----------------------------------------------------------------
 Total job time:  46.96s(wall), 46.07s(cpu) 
 Fri Aug 12 13:13:54 2022

        *************************************************************
        *                                                           *
        *  Thank you very much for using Q-Chem.  Have a nice day.  *
        *                                                           *
        *************************************************************


