
Running Job 1 of 1 tidas/B050/conf-4/spe_input.inp
qchem tidas/B050/conf-4/spe_input.inp_134519.0 /home/a/aspuru/seifridm/acdc_laser/descriptor_computation/qchem134519/ 0
/gpfs/fs1/scinet/niagara/software/commercial/qc54/exe/qcprog.exe_s tidas/B050/conf-4/spe_input.inp_134519.0 /home/a/aspuru/seifridm/acdc_laser/descriptor_computation/qchem134519/
                  Welcome to Q-Chem
     A Quantum Leap Into The Future Of Chemistry


 Q-Chem 5.4, Q-Chem, Inc., Pleasanton, CA (2021)

 License issued to: SRG Alan Aspuru-Guzik, University of Toronto

 E. Epifanovsky,  A. T. B. Gilbert,  Xintian Feng,  Joonho Lee,  Yuezhi Mao,  
 N. Mardirossian,  P. Pokhilko,  A. White,  M. Wormit,  M. P. Coons,  
 A. L. Dempwolff,  Zhengting Gan,  D. Hait,  P. R. Horn,  L. D. Jacobson,  
 I. Kaliman,  J. Kussmann,  A. W. Lange,  Ka Un Lao,  D. S. Levine,  Jie Liu,  
 S. C. McKenzie,  A. F. Morrison,  K. Nanda,  F. Plasser,  D. R. Rehn,  
 M. L. Vidal,  Zhi-Qiang You,  Ying Zhu,  B. Alam,  B. Albrecht,  
 A. Aldossary,  E. Alguire,  J. H. Andersen,  D. Barton,  K. Begam,  A. Behn,  
 Y. A. Bernard,  E. J. Berquist,  H. Burton,  A. Carreras,  K. Carter-Fenk,  
 Romit Chakraborty,  A. D. Chien,  K. D. Closser,  V. Cofer-Shabica,  
 S. Dasgupta,  Jia Deng,  M. de Wergifosse,  M. Diedenhofen,  Hainam Do,  
 S. Ehlert,  Po-Tung Fang,  S. Fatehi,  Qingguo Feng,  T. Friedhoff,  
 J. Gayvert,  Qinghui Ge,  G. Gidofalvi,  M. Goldey,  J. Gomes,  
 C. Gonzalez-Espinoza,  S. Gulania,  A. Gunina,  M. W. D. Hanson-Heine,  
 P. H. P. Harbach,  A. W. Hauser,  M. F. Herbst,  M. Hernandez Vera,  
 M. Hodecker,  Z. C. Holden,  S. Houck,  Xunkun Huang,  Kerwin Hui,  
 B. C. Huynh,  M. Ivanov,  Hyunjun Ji,  Hanjie Jiang,  B. Kaduk,  S. Kaehler,  
 K. Khistyaev,  Jaehoon Kim,  P. Klunzinger,  Z. Koczor-Benda,  
 Joong Hoon Koh,  D. Kosenkov,  L. Koulias,  T. Kowalczyk,  C. M. Krauter,  
 K. Kue,  A. Kunitsa,  T. Kus,  A. Landau,  K. V. Lawler,  D. Lefrancois,  
 S. Lehtola,  Rain Li,  Yi-Pei Li,  Jiashu Liang,  M. Liebenthal,  
 Hung-Hsuan Lin,  You-Sheng Lin,  Fenglai Liu,  Kuan-Yu Liu,  
 M. Loipersberger,  A. Luenser,  A. Manjanath,  P. Manohar,  E. Mansoor,  
 S. F. Manzer,  Shan-Ping Mao,  A. V. Marenich,  T. Markovich,  S. Mason,  
 S. A. Maurer,  P. F. McLaughlin,  M. F. S. J. Menger,  J.-M. Mewes,  
 S. A. Mewes,  P. Morgante,  J. W. Mullinax,  K. J. Oosterbaan,  G. Paran,  
 Alexander C. Paul,  Suranjan K. Paul,  F. Pavosevic,  Zheng Pei,  S. Prager,  
 E. I. Proynov,  E. Ramos,  B. Rana,  A. E. Rask,  A. Rettig,  R. M. Richard,  
 F. Rob,  E. Rossomme,  T. Scheele,  M. Scheurer,  M. Schneider,  
 N. Sergueev,  S. M. Sharada,  W. Skomorowski,  D. W. Small,  C. J. Stein,  
 Yu-Chuan Su,  E. J. Sundstrom,  Zhen Tao,  J. Thirman,  T. Tsuchimochi,  
 N. M. Tubman,  S. P. Veccham,  O. Vydrov,  J. Wenzel,  J. Witte,  A. Yamada,  
 Kun Yao,  S. Yeganeh,  S. R. Yost,  A. Zech,  Igor Ying Zhang,  Xing Zhang,  
 Yu Zhang,  D. Zuev,  A. Aspuru-Guzik,  A. T. Bell,  N. A. Besley,  
 K. B. Bravaya,  B. R. Brooks,  D. Casanova,  Jeng-Da Chai,  S. Coriani,  
 C. J. Cramer,  A. E. DePrince, III,  R. A. DiStasio Jr.,  A. Dreuw,  
 B. D. Dunietz,  T. R. Furlani,  W. A. Goddard III,  S. Grimme,  
 S. Hammes-Schiffer,  T. Head-Gordon,  W. J. Hehre,  Chao-Ping Hsu,  
 T.-C. Jagau,  Yousung Jung,  A. Klamt,  Jing Kong,  D. S. Lambrecht,  
 WanZhen Liang,  N. J. Mayhall,  C. W. McCurdy,  J. B. Neaton,  T. Neudecker,  
 C. Ochsenfeld,  J. A. Parkhill,  R. Peverati,  V. A. Rassolov,  Yihan Shao,  
 L. V. Slipchenko,  R. P. Steele,  J. E. Subotnik,  A. J. W. Thom,  
 A. Tkatchenko,  D. G. Truhlar,  T. Van Voorhis,  T. A. Wesolowski,  
 K. B. Whaley,  H. L. Woodcock III,  P. M. Zimmerman,  S. Faraji,  
 P. M. W. Gill,  M. Head-Gordon,  J. M. Herbert,  A. I. Krylov

 Additional authors since Version 5.4.0: 
 Chandrima Chakravarty,  L. Cunha,  R. Kang,  Yongbin Kim,  S. Kotaru,  
 Shaozhi Li,  Xiangyuan Li,  F. Matz,  A. Molle,  V. Parravicini,  
 Haisheng Ren,  Hengyuan Shen,  Yingli Su,  Hung-Yi Tsai,  C. Utku,  
 Fang Wang,  Jeff Yang,  F. Zeller

 Contributors to earlier versions of Q-Chem not listed above: 
 R. D. Adamson,  B. Austin,  R. Baer,  J. Baker,  G. J. O. Beran,  
 K. Brandhorst,  S. T. Brown,  E. F. C. Byrd,  Arup K. Chakraborty,  
 G. K. L. Chan,  Chun-Min Chang,  Yunqing Chen,  C.-L. Cheng,  
 Siu Hung Chien,  D. M. Chipman,  D. L. Crittenden,  H. Dachsel,  
 R. J. Doerksen,  A. D. Dutoi,  R. G. Edgar,  J. Fosso-Tande,  
 L. Fusti-Molnar,  D. Ghosh,  A. Ghysels,  A. Golubeva-Zadorozhnaya,  
 J. Gonthier,  M. S. Gordon,  S. R. Gwaltney,  G. Hawkins,  J. E. Herr,  
 A. Heyden,  S. Hirata,  E. G. Hohenstein,  G. Kedziora,  F. J. Keil,  
 C. Kelley,  Jihan Kim,  R. A. King,  R. Z. Khaliullin,  P. P. Korambath,  
 W. Kurlancheek,  A. Laurent,  A. M. Lee,  M. S. Lee,  S. V. Levchenko,  
 Ching Yeh Lin,  D. Liotard,  E. Livshits,  R. C. Lochan,  I. Lotan,  
 L. A. Martinez-Martinez,  P. E. Maslen,  N. Nair,  D. P. O'Neill,  
 D. Neuhauser,  E. Neuscamman,  C. M. Oana,  R. Olivares-Amaya,  R. Olson,  
 T. M. Perrine,  B. Peters,  P. A. Pieniazek,  A. Prociuk,  Y. M. Rhee,  
 J. Ritchie,  M. A. Rohrdanz,  E. Rosta,  N. J. Russ,  H. F. Schaefer III,  
 M. W. Schmidt,  N. E. Schultz,  S. Sharma,  N. Shenvi,  C. D. Sherrill,  
 A. C. Simmonett,  A. Sodt,  T. Stein,  D. Stuck,  K. S. Thanthiriwatte,  
 V. Vanovschi,  L. Vogt,  Tao Wang,  A. Warshel,  M. A. Watson,  
 C. F. Williams,  Q. Wu,  X. Xu,  Jun Yang,  W. Zhang,  Yan Zhao

   Please cite Q-Chem as follows:
  "Software for the frontiers of quantum chemistry:
   An overview of developments in the Q-Chem 5 package"
   J. Chem. Phys. 155, 084801 (2021)
   https://doi.org/10.1063/5.0055522 (open access)

 Q-Chem 5.4.2 for Intel X86 EM64T Linux

 Parts of Q-Chem use Armadillo 9.900.5 (Nocturnal Misbehaviour).
 http://arma.sourceforge.net/

 Q-Chem begins on Fri Aug 12 13:11:43 2022  

 Host: 
0

     Scratch files written to /home/a/aspuru/seifridm/acdc_laser/descriptor_computation/qchem134519//
 Dec1321 |scratch|qcdevops|jenkins|workspace|build_RNUM 6959   
 Processing $rem in /gpfs/fs1/scinet/niagara/software/commercial/qc54/config/preferences:
 Processing $rem in /home/a/aspuru/seifridm/.qchemrc:

 Checking the input file for inconsistencies... 	...done.

--------------------------------------------------------------
User input:
--------------------------------------------------------------
$molecule
0 1
C           -1.66927374540000        4.67360671320000        0.18844566290000
C           -0.55781342310000        3.95989686070000        0.05976331390000
C           -0.45341760120000        2.50406868000000        0.05989410650000
C           -1.56374823300000        1.66498941130000        0.00289775910000
C           -1.43627711950000        0.27590962590000        0.00605836320000
C           -2.65526444060000       -0.51734090210000       -0.06447082740000
C           -2.77899260440000       -1.83513377930000       -0.11894011240000
F           -1.81916946340000       -2.74981252960000       -0.12284521910000
F           -3.95851348790000       -2.44935848720000       -0.18371459490000
C           -0.16280428860000       -0.28812728060000        0.07488899620000
C            0.95376522020000        0.53688303730000        0.12896335250000
C            2.33086116780000       -0.02153379490000        0.19542367870000
O            3.33112433130000        0.65317898930000        0.15591515060000
O            2.33237417910000       -1.35248544880000        0.31911451870000
C            3.60363462300000       -1.99880413900000        0.37163139540000
C            4.14882822030000       -2.26116923760000       -1.02489546400000
C            0.81019202580000        1.91888699750000        0.11454044360000
H           -1.64503541870000        5.74957710830000        0.18217134080000
H           -2.64126414180000        4.22754385680000        0.31258899030000
H            0.38930465630000        4.47405987150000       -0.04271275720000
H           -2.55196612260000        2.09460960370000       -0.05626727170000
H           -3.58704226420000        0.02963814190000       -0.07925032150000
H           -0.02302980150000       -1.35526169230000        0.08430174920000
H            3.42438300150000       -2.93364876550000        0.90681598680000
H            4.29850704300000       -1.36973601400000        0.93789118980000
H            3.43623756150000       -2.84490977670000       -1.60274810400000
H            5.08383649100000       -2.80933039950000       -0.95403072920000
H            4.33053959760000       -1.31845074200000       -1.53527564810000
H            1.70063953760000        2.52886708750000        0.15350243240000
$end

$rem
BASIS = 6-31G*
GUI = 2
METHOD = B3LYP
PRINT_ORBITALS false
MOLDEN_FORMAT false
$end
--------------------------------------------------------------
 ----------------------------------------------------------------
             Standard Nuclear Orientation (Angstroms)
    I     Atom           X                Y                Z
 ----------------------------------------------------------------
    1      C       3.4041431319    -3.5902794240    -0.0491869794
    2      C       2.1003933914    -3.3593234133    -0.1396352187
    3      C       1.4392738105    -2.0603076210    -0.0633917441
    4      C       2.1355363645    -0.8540063604    -0.0772639907
    5      C       1.4791202570     0.3744780425    -0.0014649795
    6      C       2.2929995317     1.5814825847    -0.0313215885
    7      C       1.8944944622     2.8447487773    -0.0169735972
    8      F       0.6550910120     3.3135849992     0.0275753964
    9      F       2.7416005464     3.8714087856    -0.0504063581
   10      C       0.0883090837     0.3952995791     0.0976263060
   11      C      -0.6192226104    -0.8003407069     0.1093197693
   12      C      -2.1033810052    -0.8248463499     0.2058232140
   13      O      -2.7640306394    -1.8325128318     0.1318300838
   14      O      -2.6186582918     0.3933321429     0.3988633544
   15      C      -4.0397019639     0.4915063291     0.4859592720
   16      C      -4.6731029464     0.5878828962    -0.8945745107
   17      C       0.0490483304    -2.0155178240     0.0226320989
   18      H       3.7992071797    -4.5894609967    -0.1116348587
   19      H       4.1292420493    -2.8080441535     0.0974026169
   20      H       1.4250918086    -4.1955927218    -0.2681615546
   21      H       3.2115555945    -0.8624595186    -0.1594818036
   22      H       3.3634853600     1.4409834530    -0.0753046088
   23      H      -0.4543820077     1.3224630184     0.1628620017
   24      H      -4.2260955363     1.3957599593     1.0691153186
   25      H      -4.4239894707    -0.3844691735     1.0190770560
   26      H      -4.2551433359     1.4295901564    -1.4416492677
   27      H      -5.7458493878     0.7255305070    -0.7945188066
   28      H      -4.4854008517    -0.3257588004    -1.4533695473
   29      H      -0.5338930025    -2.9246993389     0.0303062956
 ----------------------------------------------------------------
 Molecular Point Group                 C1    NOp =  1
 Largest Abelian Subgroup              C1    NOp =  1
 Nuclear Repulsion Energy =        1142.03011720 hartrees
 There are       62 alpha and       62 beta electrons
 Requested basis set is 6-31G(d)
 There are 92 shells and 279 basis functions

 Total QAlloc Memory Limit   8000 MB
 Mega-Array Size       188 MB
 MEM_STATIC part       192 MB
 A cutoff of  1.0D-08 yielded   2281 shell pairs
 There are     22855 function pairs
 Smallest overlap matrix eigenvalue = 3.57E-04

 Scale SEOQF with 1.000000e-02/1.000000e-01/1.000000e+00

 Standard Electronic Orientation quadrupole field applied
 Nucleus-field energy     =     0.0000000294 hartrees
 Guess from superposition of atomic densities
 Warning:  Energy on first SCF cycle will be non-variational
 SAD guess density has 124.000000 electrons

 -----------------------------------------------------------------------
  General SCF calculation program by
  Eric Jon Sundstrom, Paul Horn, Yuezhi Mao, Dmitri Zuev, Alec White,
  David Stuck, Shaama M.S., Shane Yost, Joonho Lee, David Small,
  Daniel Levine, Susi Lehtola, Hugh Burton, Evgeny Epifanovsky,
  Bang C. Huynh
 -----------------------------------------------------------------------
 Exchange:     0.2000 Hartree-Fock + 0.0800 Slater + 0.7200 B88
 Correlation:  0.1900 VWN1RPA + 0.8100 LYP
 Using SG-1 standard quadrature grid
 A restricted SCF calculation will be
 performed using DIIS
 SCF converges when DIIS error is below 1.0e-05
 ---------------------------------------
  Cycle       Energy         DIIS error
 ---------------------------------------
    1    -856.4379354867      4.80e-02  
    2    -852.4013980092      5.84e-03  
    3    -852.0284990871      8.96e-03  
    4    -852.6772609062      2.05e-03  
    5    -852.7099361570      6.36e-04  
    6    -852.7126687087      2.42e-04  
    7    -852.7131488778      7.01e-05  
    8    -852.7131906565      2.63e-05  
    9    -852.7131981393      6.71e-06  Convergence criterion met
 ---------------------------------------
 SCF time:   CPU 80.70s  wall 85.00s 
 SCF   energy in the final basis set =     -852.7131981393
 Total energy in the final basis set =     -852.7131981393
 
 --------------------------------------------------------------
 
                    Orbital Energies (a.u.)
 --------------------------------------------------------------
 
 Alpha MOs
 -- Occupied --
-24.7494 -24.7386 -19.1914 -19.1322 -10.3622 -10.3136 -10.2425 -10.2148
-10.2080 -10.2045 -10.2040 -10.2002 -10.1971 -10.1958 -10.1951 -10.1860
-10.1802  -1.2909  -1.2294  -1.1087  -1.0171  -0.8811  -0.8212  -0.8037
 -0.7734  -0.7519  -0.7343  -0.6739  -0.6516  -0.6412  -0.6109  -0.5900
 -0.5773  -0.5511  -0.5269  -0.5240  -0.5150  -0.4983  -0.4933  -0.4748
 -0.4574  -0.4544  -0.4456  -0.4455  -0.4414  -0.4344  -0.4195  -0.4113
 -0.4082  -0.3953  -0.3831  -0.3794  -0.3730  -0.3611  -0.3511  -0.3393
 -0.3241  -0.2992  -0.2906  -0.2739  -0.2400  -0.2257
 -- Virtual --
 -0.0503  -0.0381   0.0032   0.0807   0.0830   0.0866   0.1079   0.1121
  0.1197   0.1327   0.1466   0.1472   0.1561   0.1597   0.1710   0.1791
  0.1879   0.1905   0.2008   0.2081   0.2174   0.2288   0.2649   0.2805
  0.2947   0.3034   0.3168   0.3310   0.3568   0.3835   0.4140   0.4445
  0.4529   0.4750   0.4850   0.4966   0.5115   0.5170   0.5225   0.5316
  0.5375   0.5389   0.5449   0.5598   0.5617   0.5695   0.5766   0.5782
  0.5904   0.5937   0.6061   0.6166   0.6193   0.6375   0.6510   0.6584
  0.6589   0.6838   0.6883   0.7067   0.7476   0.7613   0.7716   0.7774
  0.7920   0.8006   0.8141   0.8205   0.8245   0.8484   0.8523   0.8757
  0.8844   0.8901   0.8934   0.8946   0.9109   0.9336   0.9496   0.9602
  0.9675   0.9786   1.0023   1.0149   1.0174   1.0356   1.0574   1.0861
  1.0992   1.1080   1.1175   1.1452   1.1527   1.1582   1.1702   1.2039
  1.2108   1.2319   1.2397   1.2485   1.2709   1.2908   1.3175   1.3229
  1.3349   1.3377   1.3667   1.3851   1.3989   1.4048   1.4429   1.4531
  1.4665   1.4721   1.4810   1.4929   1.5113   1.5134   1.5399   1.5504
  1.6008   1.6411   1.6703   1.6772   1.6943   1.7173   1.7391   1.7501
  1.7736   1.7795   1.7907   1.8013   1.8163   1.8292   1.8326   1.8567
  1.8714   1.8887   1.8933   1.8967   1.9343   1.9366   1.9446   1.9596
  1.9721   1.9827   1.9950   2.0202   2.0207   2.0267   2.0497   2.0671
  2.0767   2.1196   2.1226   2.1359   2.1519   2.1580   2.1744   2.2201
  2.2251   2.2315   2.2505   2.2591   2.3039   2.3159   2.3210   2.3479
  2.3572   2.3830   2.4100   2.4324   2.4770   2.5137   2.5187   2.5339
  2.5420   2.5842   2.6070   2.6246   2.6313   2.6709   2.6847   2.6961
  2.7455   2.7583   2.8032   2.8312   2.8677   2.8866   2.9247   2.9702
  2.9932   3.0422   3.1142   3.1326   3.1741   3.2275   3.3262   3.4901
  3.9876   4.0730   4.0868   4.1139   4.1239   4.1459   4.1877   4.2320
  4.2615   4.3185   4.4344   4.4753   4.4919   4.5678   4.7478   4.8308
  5.3036
 --------------------------------------------------------------
 
          Ground-State Mulliken Net Atomic Charges

     Atom                 Charge (a.u.)
  ----------------------------------------
      1 C                    -0.352104
      2 C                    -0.108596
      3 C                     0.172435
      4 C                    -0.247614
      5 C                     0.197120
      6 C                    -0.298751
      7 C                     0.548270
      8 F                    -0.230830
      9 F                    -0.247073
     10 C                    -0.231831
     11 C                     0.048481
     12 C                     0.602862
     13 O                    -0.492151
     14 O                    -0.465750
     15 C                    -0.046899
     16 C                    -0.464011
     17 C                    -0.235475
     18 H                     0.148677
     19 H                     0.143136
     20 H                     0.135584
     21 H                     0.130835
     22 H                     0.160776
     23 H                     0.162787
     24 H                     0.152472
     25 H                     0.169692
     26 H                     0.157761
     27 H                     0.152267
     28 H                     0.177753
     29 H                     0.160176
  ----------------------------------------
  Sum of atomic charges =     0.000000

 -----------------------------------------------------------------
                    Cartesian Multipole Moments
 -----------------------------------------------------------------
    Charge (ESU x 10^10)
                 0.0000
    Dipole Moment (Debye)
         X       0.7902      Y       0.7003      Z      -0.0179
       Tot       1.0560
    Quadrupole Moments (Debye-Ang)
        XX     -84.4074     XY      -9.5901     YY     -98.3136
        XZ      -0.6765     YZ       0.5675     ZZ     -97.8354
    Octopole Moments (Debye-Ang^2)
       XXX     -14.3458    XXY      32.7208    XYY      11.2777
       YYY      20.4279    XXZ       4.6437    XYZ      -0.8110
       YYZ      -1.5698    XZZ      -9.8878    YZZ      24.4587
       ZZZ       2.9294
    Hexadecapole Moments (Debye-Ang^3)
      XXXX   -3476.0834   XXXY     -31.7322   XXYY   -1104.4666
      XYYY     -13.9222   YYYY   -2591.1386   XXXZ     -26.7011
      XXYZ       5.1202   XYYZ      -4.7519   YYYZ      13.2615
      XXZZ    -676.2593   XYZZ      55.4441   YYZZ    -480.7265
      XZZZ      -8.0738   YZZZ      -2.0217   ZZZZ    -165.3093
 -----------------------------------------------------------------
 Total job time:  88.87s(wall), 81.39s(cpu) 
 Fri Aug 12 13:13:12 2022

        *************************************************************
        *                                                           *
        *  Thank you very much for using Q-Chem.  Have a nice day.  *
        *                                                           *
        *************************************************************


