24
 energy: -42.126718964031 gnorm: 0.000027895288 xtb: 6.5.0 (unknown)
C           -1.75915690440000       -2.91089866910000        0.68425317940000
C           -1.41144966320000       -1.89008513990000       -0.08728084770000
C           -0.13586079460000       -1.18333293660000       -0.01902016610000
C            1.03267297250000       -1.86391639380000        0.33293881200000
C            2.25956082630000       -1.24479451070000        0.32977162950000
C            2.37118326540000        0.09623964940000       -0.04865629110000
O            3.62705123430000        0.61658195390000       -0.03792384680000
C            3.80458834960000        1.96128115620000       -0.41188544040000
C            1.22414513270000        0.78828929090000       -0.40603582100000
C           -0.02454966470000        0.16723818810000       -0.37535715960000
C           -1.18180813110000        0.99669280900000       -0.71771762570000
C           -2.33342305990000        1.03119948910000       -0.06950626570000
F           -2.66962847370000        0.34572517550000        1.01482549170000
F           -3.34727398900000        1.82692040400000       -0.41270457930000
H           -2.70987701620000       -3.40233027330000        0.57245081540000
H           -1.12246399320000       -3.27702702400000        1.47163684350000
H           -2.10372697810000       -1.53135470940000       -0.83930143450000
H            0.96856619220000       -2.90933168060000        0.59184118920000
H            3.15687893280000       -1.77742173250000        0.60142154220000
H            4.87310803490000        2.15188208580000       -0.32627455920000
H            3.26252045240000        2.63920903210000        0.25533277230000
H            3.48843460240000        2.13658484590000       -1.44529032610000
H            1.27000633400000        1.82732441800000       -0.69346750310000
H           -1.07477173100000        1.68972833270000       -1.53962400410000
