
Running Job 1 of 1 tidas/B034/conf-2/spe_input.inp
qchem tidas/B034/conf-2/spe_input.inp_246989.0 /home/a/aspuru/seifridm/acdc_laser/descriptor_computation/qchem246989/ 0
/gpfs/fs1/scinet/niagara/software/commercial/qc54/exe/qcprog.exe_s tidas/B034/conf-2/spe_input.inp_246989.0 /home/a/aspuru/seifridm/acdc_laser/descriptor_computation/qchem246989/
                  Welcome to Q-Chem
     A Quantum Leap Into The Future Of Chemistry


 Q-Chem 5.4, Q-Chem, Inc., Pleasanton, CA (2021)

 License issued to: SRG Alan Aspuru-Guzik, University of Toronto

 E. Epifanovsky,  A. T. B. Gilbert,  Xintian Feng,  Joonho Lee,  Yuezhi Mao,  
 N. Mardirossian,  P. Pokhilko,  A. White,  M. Wormit,  M. P. Coons,  
 A. L. Dempwolff,  Zhengting Gan,  D. Hait,  P. R. Horn,  L. D. Jacobson,  
 I. Kaliman,  J. Kussmann,  A. W. Lange,  Ka Un Lao,  D. S. Levine,  Jie Liu,  
 S. C. McKenzie,  A. F. Morrison,  K. Nanda,  F. Plasser,  D. R. Rehn,  
 M. L. Vidal,  Zhi-Qiang You,  Ying Zhu,  B. Alam,  B. Albrecht,  
 A. Aldossary,  E. Alguire,  J. H. Andersen,  D. Barton,  K. Begam,  A. Behn,  
 Y. A. Bernard,  E. J. Berquist,  H. Burton,  A. Carreras,  K. Carter-Fenk,  
 Romit Chakraborty,  A. D. Chien,  K. D. Closser,  V. Cofer-Shabica,  
 S. Dasgupta,  Jia Deng,  M. de Wergifosse,  M. Diedenhofen,  Hainam Do,  
 S. Ehlert,  Po-Tung Fang,  S. Fatehi,  Qingguo Feng,  T. Friedhoff,  
 J. Gayvert,  Qinghui Ge,  G. Gidofalvi,  M. Goldey,  J. Gomes,  
 C. Gonzalez-Espinoza,  S. Gulania,  A. Gunina,  M. W. D. Hanson-Heine,  
 P. H. P. Harbach,  A. W. Hauser,  M. F. Herbst,  M. Hernandez Vera,  
 M. Hodecker,  Z. C. Holden,  S. Houck,  Xunkun Huang,  Kerwin Hui,  
 B. C. Huynh,  M. Ivanov,  Hyunjun Ji,  Hanjie Jiang,  B. Kaduk,  S. Kaehler,  
 K. Khistyaev,  Jaehoon Kim,  P. Klunzinger,  Z. Koczor-Benda,  
 Joong Hoon Koh,  D. Kosenkov,  L. Koulias,  T. Kowalczyk,  C. M. Krauter,  
 K. Kue,  A. Kunitsa,  T. Kus,  A. Landau,  K. V. Lawler,  D. Lefrancois,  
 S. Lehtola,  Rain Li,  Yi-Pei Li,  Jiashu Liang,  M. Liebenthal,  
 Hung-Hsuan Lin,  You-Sheng Lin,  Fenglai Liu,  Kuan-Yu Liu,  
 M. Loipersberger,  A. Luenser,  A. Manjanath,  P. Manohar,  E. Mansoor,  
 S. F. Manzer,  Shan-Ping Mao,  A. V. Marenich,  T. Markovich,  S. Mason,  
 S. A. Maurer,  P. F. McLaughlin,  M. F. S. J. Menger,  J.-M. Mewes,  
 S. A. Mewes,  P. Morgante,  J. W. Mullinax,  K. J. Oosterbaan,  G. Paran,  
 Alexander C. Paul,  Suranjan K. Paul,  F. Pavosevic,  Zheng Pei,  S. Prager,  
 E. I. Proynov,  E. Ramos,  B. Rana,  A. E. Rask,  A. Rettig,  R. M. Richard,  
 F. Rob,  E. Rossomme,  T. Scheele,  M. Scheurer,  M. Schneider,  
 N. Sergueev,  S. M. Sharada,  W. Skomorowski,  D. W. Small,  C. J. Stein,  
 Yu-Chuan Su,  E. J. Sundstrom,  Zhen Tao,  J. Thirman,  T. Tsuchimochi,  
 N. M. Tubman,  S. P. Veccham,  O. Vydrov,  J. Wenzel,  J. Witte,  A. Yamada,  
 Kun Yao,  S. Yeganeh,  S. R. Yost,  A. Zech,  Igor Ying Zhang,  Xing Zhang,  
 Yu Zhang,  D. Zuev,  A. Aspuru-Guzik,  A. T. Bell,  N. A. Besley,  
 K. B. Bravaya,  B. R. Brooks,  D. Casanova,  Jeng-Da Chai,  S. Coriani,  
 C. J. Cramer,  A. E. DePrince, III,  R. A. DiStasio Jr.,  A. Dreuw,  
 B. D. Dunietz,  T. R. Furlani,  W. A. Goddard III,  S. Grimme,  
 S. Hammes-Schiffer,  T. Head-Gordon,  W. J. Hehre,  Chao-Ping Hsu,  
 T.-C. Jagau,  Yousung Jung,  A. Klamt,  Jing Kong,  D. S. Lambrecht,  
 WanZhen Liang,  N. J. Mayhall,  C. W. McCurdy,  J. B. Neaton,  T. Neudecker,  
 C. Ochsenfeld,  J. A. Parkhill,  R. Peverati,  V. A. Rassolov,  Yihan Shao,  
 L. V. Slipchenko,  R. P. Steele,  J. E. Subotnik,  A. J. W. Thom,  
 A. Tkatchenko,  D. G. Truhlar,  T. Van Voorhis,  T. A. Wesolowski,  
 K. B. Whaley,  H. L. Woodcock III,  P. M. Zimmerman,  S. Faraji,  
 P. M. W. Gill,  M. Head-Gordon,  J. M. Herbert,  A. I. Krylov

 Additional authors since Version 5.4.0: 
 Chandrima Chakravarty,  L. Cunha,  R. Kang,  Yongbin Kim,  S. Kotaru,  
 Shaozhi Li,  Xiangyuan Li,  F. Matz,  A. Molle,  V. Parravicini,  
 Haisheng Ren,  Hengyuan Shen,  Yingli Su,  Hung-Yi Tsai,  C. Utku,  
 Fang Wang,  Jeff Yang,  F. Zeller

 Contributors to earlier versions of Q-Chem not listed above: 
 R. D. Adamson,  B. Austin,  R. Baer,  J. Baker,  G. J. O. Beran,  
 K. Brandhorst,  S. T. Brown,  E. F. C. Byrd,  Arup K. Chakraborty,  
 G. K. L. Chan,  Chun-Min Chang,  Yunqing Chen,  C.-L. Cheng,  
 Siu Hung Chien,  D. M. Chipman,  D. L. Crittenden,  H. Dachsel,  
 R. J. Doerksen,  A. D. Dutoi,  R. G. Edgar,  J. Fosso-Tande,  
 L. Fusti-Molnar,  D. Ghosh,  A. Ghysels,  A. Golubeva-Zadorozhnaya,  
 J. Gonthier,  M. S. Gordon,  S. R. Gwaltney,  G. Hawkins,  J. E. Herr,  
 A. Heyden,  S. Hirata,  E. G. Hohenstein,  G. Kedziora,  F. J. Keil,  
 C. Kelley,  Jihan Kim,  R. A. King,  R. Z. Khaliullin,  P. P. Korambath,  
 W. Kurlancheek,  A. Laurent,  A. M. Lee,  M. S. Lee,  S. V. Levchenko,  
 Ching Yeh Lin,  D. Liotard,  E. Livshits,  R. C. Lochan,  I. Lotan,  
 L. A. Martinez-Martinez,  P. E. Maslen,  N. Nair,  D. P. O'Neill,  
 D. Neuhauser,  E. Neuscamman,  C. M. Oana,  R. Olivares-Amaya,  R. Olson,  
 T. M. Perrine,  B. Peters,  P. A. Pieniazek,  A. Prociuk,  Y. M. Rhee,  
 J. Ritchie,  M. A. Rohrdanz,  E. Rosta,  N. J. Russ,  H. F. Schaefer III,  
 M. W. Schmidt,  N. E. Schultz,  S. Sharma,  N. Shenvi,  C. D. Sherrill,  
 A. C. Simmonett,  A. Sodt,  T. Stein,  D. Stuck,  K. S. Thanthiriwatte,  
 V. Vanovschi,  L. Vogt,  Tao Wang,  A. Warshel,  M. A. Watson,  
 C. F. Williams,  Q. Wu,  X. Xu,  Jun Yang,  W. Zhang,  Yan Zhao

   Please cite Q-Chem as follows:
  "Software for the frontiers of quantum chemistry:
   An overview of developments in the Q-Chem 5 package"
   J. Chem. Phys. 155, 084801 (2021)
   https://doi.org/10.1063/5.0055522 (open access)

 Q-Chem 5.4.2 for Intel X86 EM64T Linux

 Parts of Q-Chem use Armadillo 9.900.5 (Nocturnal Misbehaviour).
 http://arma.sourceforge.net/

 Q-Chem begins on Fri Aug 12 12:44:31 2022  

 Host: 
0

     Scratch files written to /home/a/aspuru/seifridm/acdc_laser/descriptor_computation/qchem246989//
 Dec1321 |scratch|qcdevops|jenkins|workspace|build_RNUM 6959   
 Processing $rem in /gpfs/fs1/scinet/niagara/software/commercial/qc54/config/preferences:
 Processing $rem in /home/a/aspuru/seifridm/.qchemrc:

 Checking the input file for inconsistencies... 	...done.

--------------------------------------------------------------
User input:
--------------------------------------------------------------
$molecule
0 1
C           -4.73053677330000       -1.02431611960000       -0.06249754840000
C           -3.83298131040000       -0.06558121730000       -0.25806067760000
C           -2.40725396620000       -0.13780524830000        0.03366191810000
C           -1.81859737750000       -1.20910828780000        0.70842694730000
C           -0.46348304480000       -1.21708924440000        0.94729181450000
C            0.36158394580000       -0.17874464690000        0.50939566800000
C            1.79281332200000       -0.30134156760000        0.79435665670000
C            2.79034625370000       -0.08259311220000       -0.04383909070000
F            2.70974060270000        0.28579907930000       -1.31685819620000
F            4.07467713240000       -0.23950258300000        0.28027800140000
C           -0.21406008130000        0.92125391590000       -0.13675191650000
C            0.58564815970000        2.11525829890000       -0.55825508060000
C           -1.58339437690000        0.91514317860000       -0.35856300890000
H           -5.76694632460000       -0.87995427530000       -0.31509447060000
H           -4.47655340030000       -1.98657688420000        0.34766517050000
H           -4.15654852920000        0.87474923660000       -0.68798690770000
H           -2.42290979230000       -2.03182018230000        1.05593937480000
H           -0.01726178020000       -2.05126904630000        1.46961447930000
H            2.06898410450000       -0.66912003280000        1.77241417810000
H            1.42335632230000        2.28651751510000        0.11451677310000
H           -0.04208438720000        3.00336620960000       -0.56895786610000
H            0.98252843130000        1.97283525420000       -1.56283200520000
H           -2.02790529510000        1.76566888890000       -0.85729562420000
$end

$rem
BASIS = 6-31G*
GUI = 2
METHOD = B3LYP
PRINT_ORBITALS false
MOLDEN_FORMAT false
$end
--------------------------------------------------------------
 ----------------------------------------------------------------
             Standard Nuclear Orientation (Angstroms)
    I     Atom           X                Y                Z
 ----------------------------------------------------------------
    1      C       4.6954917868    -0.4216203229     0.4329865617
    2      C       3.7042733625     0.4204423582     0.1657042471
    3      C       2.2991984480     0.0791438867    -0.0140085285
    4      C       1.8332132741    -1.2358950297    -0.0691908829
    5      C       0.4909458395    -1.4889342561    -0.2357569634
    6      C      -0.4412464482    -0.4533324264    -0.3316447431
    7      C      -1.8470087357    -0.8356946966    -0.4809155797
    8      C      -2.8792564728    -0.3356667102     0.1747760928
    9      F      -2.8629751968     0.6088115675     1.1077731045
   10      F      -4.1346447862    -0.7526859702     0.0036813917
   11      C       0.0096063602     0.8715541891    -0.3150078462
   12      C      -0.9122457994     2.0370331490    -0.5012658515
   13      C       1.3677752109     1.1054505025    -0.1569451924
   14      H       5.7070034433    -0.0740064975     0.5546381229
   15      H       4.5460233240    -1.4815023110     0.5469871706
   16      H       3.9246905940     1.4775193354     0.0776237198
   17      H       2.5226659598    -2.0614587695     0.0077035195
   18      H       0.1401149349    -2.5102367283    -0.2763680663
   19      H      -2.0643755732    -1.6556581905    -1.1506463782
   20      H      -1.7477936185     1.7796037790    -1.1487970194
   21      H      -0.3749190980     2.8750050932    -0.9394226702
   22      H      -1.3151298696     2.3613374202     0.4576315553
   23      H       1.7158187946     2.1293826324    -0.1448283026
 ----------------------------------------------------------------
 Molecular Point Group                 C1    NOp =  1
 Largest Abelian Subgroup              C1    NOp =  1
 Nuclear Repulsion Energy =         739.60845453 hartrees
 There are       47 alpha and       47 beta electrons
 Requested basis set is 6-31G(d)
 There are 72 shells and 215 basis functions

 Total QAlloc Memory Limit   8000 MB
 Mega-Array Size       188 MB
 MEM_STATIC part       192 MB
 A cutoff of  1.0D-08 yielded   1783 shell pairs
 There are     16930 function pairs
 Smallest overlap matrix eigenvalue = 3.35E-04

 Scale SEOQF with 1.000000e-02/1.000000e-01/1.000000e+00

 Standard Electronic Orientation quadrupole field applied
 Nucleus-field energy     =    -0.0000000125 hartrees
 Guess from superposition of atomic densities
 Warning:  Energy on first SCF cycle will be non-variational
 SAD guess density has 94.000000 electrons

 -----------------------------------------------------------------------
  General SCF calculation program by
  Eric Jon Sundstrom, Paul Horn, Yuezhi Mao, Dmitri Zuev, Alec White,
  David Stuck, Shaama M.S., Shane Yost, Joonho Lee, David Small,
  Daniel Levine, Susi Lehtola, Hugh Burton, Evgeny Epifanovsky,
  Bang C. Huynh
 -----------------------------------------------------------------------
 Exchange:     0.2000 Hartree-Fock + 0.0800 Slater + 0.7200 B88
 Correlation:  0.1900 VWN1RPA + 0.8100 LYP
 Using SG-1 standard quadrature grid
 A restricted SCF calculation will be
 performed using DIIS
 SCF converges when DIIS error is below 1.0e-05
 ---------------------------------------
  Cycle       Energy         DIIS error
 ---------------------------------------
    1    -627.7029999007      5.42e-02  
    2    -624.5983384075      6.17e-03  
    3    -624.4563176631      7.92e-03  
    4    -624.8155821951      1.49e-03  
    5    -624.8278580308      4.43e-04  
    6    -624.8286610358      2.44e-04  
    7    -624.8290250714      5.08e-05  
    8    -624.8290375882      2.08e-05  
    9    -624.8290401408      6.17e-06  Convergence criterion met
 ---------------------------------------
 SCF time:   CPU 46.19s  wall 48.00s 
 SCF   energy in the final basis set =     -624.8290401408
 Total energy in the final basis set =     -624.8290401408
 
 --------------------------------------------------------------
 
                    Orbital Energies (a.u.)
 --------------------------------------------------------------
 
 Alpha MOs
 -- Occupied --
-24.7408 -24.7328 -10.3554 -10.2013 -10.2009 -10.1964 -10.1939 -10.1898
-10.1884 -10.1852 -10.1838 -10.1796 -10.1776  -1.2827  -1.2221  -0.8720
 -0.8170  -0.7815  -0.7681  -0.7254  -0.6889  -0.6439  -0.6110  -0.6058
 -0.5709  -0.5509  -0.5299  -0.5175  -0.4880  -0.4827  -0.4536  -0.4408
 -0.4378  -0.4337  -0.4208  -0.4199  -0.4100  -0.4087  -0.3882  -0.3691
 -0.3658  -0.3430  -0.3381  -0.3068  -0.2645  -0.2463  -0.2137
 -- Virtual --
 -0.0374   0.0009   0.0276   0.0720   0.0974   0.1095   0.1159   0.1237
  0.1407   0.1532   0.1628   0.1783   0.1805   0.1882   0.2023   0.2216
  0.2299   0.2512   0.2800   0.3149   0.3321   0.3422   0.3680   0.3880
  0.3993   0.4373   0.4841   0.4877   0.5085   0.5111   0.5184   0.5260
  0.5419   0.5495   0.5636   0.5730   0.5829   0.5927   0.5935   0.6063
  0.6110   0.6265   0.6375   0.6546   0.6665   0.6822   0.7008   0.7130
  0.7344   0.7449   0.7685   0.7887   0.8211   0.8268   0.8382   0.8517
  0.8672   0.8819   0.8921   0.8974   0.9232   0.9381   0.9516   0.9672
  0.9723   0.9864   1.0060   1.0170   1.0369   1.0801   1.0893   1.1122
  1.1458   1.1627   1.1844   1.1954   1.2187   1.2429   1.2558   1.2676
  1.3096   1.3208   1.3377   1.3557   1.3796   1.3950   1.4234   1.4505
  1.4520   1.4581   1.4787   1.4894   1.5122   1.5222   1.5540   1.5964
  1.6788   1.6888   1.7253   1.7643   1.7734   1.7920   1.8179   1.8298
  1.8393   1.8561   1.8655   1.8998   1.9234   1.9355   1.9428   1.9768
  1.9822   1.9881   2.0016   2.0127   2.0185   2.0559   2.0715   2.1100
  2.1469   2.1585   2.1670   2.2009   2.2183   2.2412   2.2462   2.2725
  2.3094   2.3166   2.3476   2.3704   2.3835   2.4053   2.4601   2.5102
  2.5253   2.5458   2.5974   2.6246   2.6557   2.6706   2.6893   2.7127
  2.7565   2.8205   2.8755   2.9310   2.9579   2.9979   3.0400   3.1311
  3.1726   3.2819   3.4700   4.0932   4.1035   4.1269   4.1303   4.1513
  4.2333   4.2496   4.3215   4.3900   4.5282   4.7819   4.7907   5.2485
 --------------------------------------------------------------
 
          Ground-State Mulliken Net Atomic Charges

     Atom                 Charge (a.u.)
  ----------------------------------------
      1 C                    -0.353345
      2 C                    -0.113495
      3 C                     0.191856
      4 C                    -0.188604
      5 C                    -0.177258
      6 C                     0.116344
      7 C                    -0.344538
      8 C                     0.566437
      9 F                    -0.233936
     10 F                    -0.249044
     11 C                     0.145661
     12 C                    -0.536143
     13 C                    -0.268016
     14 H                     0.144268
     15 H                     0.142624
     16 H                     0.127226
     17 H                     0.126505
     18 H                     0.128067
     19 H                     0.168623
     20 H                     0.157059
     21 H                     0.154266
     22 H                     0.173804
     23 H                     0.121638
  ----------------------------------------
  Sum of atomic charges =     0.000000

 -----------------------------------------------------------------
                    Cartesian Multipole Moments
 -----------------------------------------------------------------
    Charge (ESU x 10^10)
                 0.0000
    Dipole Moment (Debye)
         X       0.6966      Y      -0.1428      Z      -0.4862
       Tot       0.8614
    Quadrupole Moments (Debye-Ang)
        XX     -74.3189     XY       0.3874     YY     -67.5859
        XZ       2.0901     YZ       0.0517     ZZ     -76.7559
    Octopole Moments (Debye-Ang^2)
       XXX     -15.4832    XXY       1.1306    XYY     -11.2244
       YYY      -3.2124    XXZ       4.7600    XYZ      -2.2691
       YYZ       0.7753    XZZ     -27.5730    YZZ      -0.4377
       ZZZ       9.1136
    Hexadecapole Moments (Debye-Ang^3)
      XXXX   -2959.3276   XXXY      -0.6291   XXYY    -572.7057
      XYYY      12.1918   YYYY    -583.8750   XXXZ      11.5399
      XXYZ      -4.6422   XYYZ      -4.0699   YYYZ       8.2457
      XXZZ    -553.3147   XYZZ       7.0273   YYZZ    -128.8782
      XZZZ     -30.0443   YZZZ       6.9949   ZZZZ    -160.8741
 -----------------------------------------------------------------
 Total job time:  49.63s(wall), 46.63s(cpu) 
 Fri Aug 12 12:45:20 2022

        *************************************************************
        *                                                           *
        *  Thank you very much for using Q-Chem.  Have a nice day.  *
        *                                                           *
        *************************************************************


