23
 energy: -38.064692179088 gnorm: 0.000061709530 xtb: 6.5.0 (unknown)
C           -4.73347943510000       -1.02077061310000       -0.05554932070000
C           -3.83275192970000       -0.06708915000000       -0.26112273530000
C           -2.40706676490000       -0.14050908230000        0.03031009680000
C           -1.81790393270000       -1.21454359000000        0.70030497300000
C           -0.46289345630000       -1.22269052600000        0.93970572600000
C            0.36168604280000       -0.18166836250000        0.50726585070000
C            1.79278132570000       -0.30444260700000        0.79275574720000
C            2.79092988320000       -0.08062241150000       -0.04339229330000
F            2.71116371160000        0.29385384020000       -1.31470153220000
F            4.07510585450000       -0.23786345900000        0.28112713460000
C           -0.21439728680000        0.92076767260000       -0.13433831060000
C            0.58454841860000        2.11735874320000       -0.54992657840000
C           -1.58354326930000        0.91447125590000       -0.35722768600000
H           -5.76958208780000       -0.87509337460000       -0.30866949860000
H           -4.48283462900000       -1.97985905550000        0.36402373250000
H           -4.15393135370000        0.87059834360000       -0.69865050550000
H           -2.42157836410000       -2.03960366560000        1.04331268110000
H           -0.01631294060000       -2.05907000610000        1.45819072960000
H            2.06834783770000       -0.67679635320000        1.76925035420000
H            1.42140115120000        2.28650951490000        0.12440284780000
H           -0.04403330950000        3.00488179630000       -0.55732060270000
H            0.98253903550000        1.97975092890000       -1.55472023270000
H           -2.02834104260000        1.76689748400000       -0.85246206800000
