
Running Job 1 of 1 fragments/A017/conf-0/spe_input.inp
qchem fragments/A017/conf-0/spe_input.inp_319163.0 /gpfs/fs0/scratch/a/aspuru/rhickman/descriptor_computation/qchem319163/ 0
/scinet/niagara/software/commercial/qc52/exe/qcprog.exe_s fragments/A017/conf-0/spe_input.inp_319163.0 /gpfs/fs0/scratch/a/aspuru/rhickman/descriptor_computation/qchem319163/
                  Welcome to Q-Chem
     A Quantum Leap Into The Future Of Chemistry


 Q-Chem 5.2, Q-Chem, Inc., Pleasanton, CA (2019)

 License issued to: SRG Alan Aspuru-Guzik, University of Toronto

 Yihan Shao,  Zhengting Gan,  E. Epifanovsky,  A. T. B. Gilbert,  M. Wormit,  
 J. Kussmann,  A. W. Lange,  A. Behn,  Jia Deng,  Xintian Feng,  D. Ghosh,  
 M. Goldey,  P. R. Horn,  L. D. Jacobson,  I. Kaliman,  T. Kus,  A. Landau,  
 Jie Liu,  E. I. Proynov,  R. M. Richard,  R. P. Steele,  E. J. Sundstrom,  
 H. L. Woodcock III,  P. M. Zimmerman,  D. Zuev,  B. Albrecht,  E. Alguire,  
 S. A. Baeppler,  D. Barton,  Z. Benda,  Y. A. Bernard,  E. J. Berquist,  
 K. B. Bravaya,  H. Burton,  D. Casanova,  Chun-Min Chang,  Yunqing Chen,  
 A. Chien,  K. D. Closser,  M. P. Coons,  S. Coriani,  S. Dasgupta,  
 A. L. Dempwolff,  M. Diedenhofen,  Hainam Do,  R. G. Edgar,  Po-Tung Fang,  
 S. Faraji,  S. Fatehi,  Qingguo Feng,  K. D. Fenk,  J. Fosso-Tande,  
 J. Gayvert,  Qinghui Ge,  A. Ghysels,  G. Gidofalvi,  J. Gomes,  
 J. Gonthier,  A. Gunina,  D. Hait,  M. W. D. Hanson-Heine,  
 P. H. P. Harbach,  A. W. Hauser,  M. F. Herbst,  J. E. Herr,  
 E. G. Hohenstein,  Z. C. Holden,  Kerwin Hui,  B. C. Huynh,  T.-C. Jagau,  
 Hyunjun Ji,  B. Kaduk,  K. Khistyaev,  Jaehoon Kim,  P. Klunzinger,  K. Koh,  
 D. Kosenkov,  L. Koulias,  T. Kowalczyk,  C. M. Krauter,  A. Kunitsa,  
 Ka Un Lao,  A. Laurent,  K. V. Lawler,  Joonho Lee,  D. Lefrancois,  
 S. Lehtola,  D. S. Levine,  Yi-Pei Li,  You-Sheng Lin,  Fenglai Liu,  
 E. Livshits,  A. Luenser,  P. Manohar,  E. Mansoor,  S. F. Manzer,  
 Shan-Ping Mao,  Yuezhi Mao,  N. Mardirossian,  A. V. Marenich,  
 T. Markovich,  L. A. Martinez-Martinez,  S. A. Maurer,  N. J. Mayhall,  
 S. C. McKenzie,  J.-M. Mewes,  P. Morgante,  A. F. Morrison,  
 J. W. Mullinax,  K. Nanda,  T. S. Nguyen-Beck,  R. Olivares-Amaya,  
 J. A. Parkhill,  Zheng Pei,  T. M. Perrine,  F. Plasser,  P. Pokhilko,  
 S. Prager,  A. Prociuk,  E. Ramos,  D. R. Rehn,  F. Rob,  M. Scheurer,  
 M. Schneider,  N. Sergueev,  S. M. Sharada,  S. Sharma,  D. W. Small,  
 T. Stauch,  T. Stein,  Yu-Chuan Su,  A. J. W. Thom,  A. Tkatchenko,  
 T. Tsuchimochi,  N. M. Tubman,  L. Vogt,  M. L. Vidal,  O. Vydrov,  
 M. A. Watson,  J. Wenzel,  M. de Wergifosse,  T. A. Wesolowski,  A. White,  
 J. Witte,  A. Yamada,  Jun Yang,  K. Yao,  S. Yeganeh,  S. R. Yost,  
 Zhi-Qiang You,  A. Zech,  Igor Ying Zhang,  Xing Zhang,  Yan Zhao,  
 Ying Zhu,  B. R. Brooks,  G. K. L. Chan,  C. J. Cramer,  M. S. Gordon,  
 W. J. Hehre,  A. Klamt,  M. W. Schmidt,  C. D. Sherrill,  D. G. Truhlar,  
 A. Aspuru-Guzik,  R. Baer,  A. T. Bell,  N. A. Besley,  Jeng-Da Chai,  
 A. E. DePrince, III,  R. A. DiStasio Jr.,  A. Dreuw,  B. D. Dunietz,  
 T. R. Furlani,  Chao-Ping Hsu,  Yousung Jung,  Jing Kong,  D. S. Lambrecht,  
 WanZhen Liang,  C. Ochsenfeld,  V. A. Rassolov,  L. V. Slipchenko,  
 J. E. Subotnik,  T. Van Voorhis,  J. M. Herbert,  A. I. Krylov,  
 P. M. W. Gill,  M. Head-Gordon

 Contributors to earlier versions of Q-Chem not listed above: 
 R. D. Adamson,  B. Austin,  J. Baker,  G. J. O. Beran,  K. Brandhorst,  
 S. T. Brown,  E. F. C. Byrd,  A. K. Chakraborty,  C.-L. Cheng,  
 Siu Hung Chien,  D. M. Chipman,  D. L. Crittenden,  H. Dachsel,  
 R. J. Doerksen,  A. D. Dutoi,  L. Fusti-Molnar,  W. A. Goddard III,  
 A. Golubeva-Zadorozhnaya,  S. R. Gwaltney,  G. Hawkins,  A. Heyden,  
 S. Hirata,  G. Kedziora,  F. J. Keil,  C. Kelley,  Jihan Kim,  R. A. King,  
 R. Z. Khaliullin,  P. P. Korambath,  W. Kurlancheek,  A. M. Lee,  M. S. Lee,  
 S. V. Levchenko,  Ching Yeh Lin,  D. Liotard,  R. C. Lochan,  I. Lotan,  
 P. E. Maslen,  N. Nair,  D. P. O'Neill,  D. Neuhauser,  E. Neuscamman,  
 C. M. Oana,  R. Olson,  B. Peters,  R. Peverati,  P. A. Pieniazek,  
 Y. M. Rhee,  J. Ritchie,  M. A. Rohrdanz,  E. Rosta,  N. J. Russ,  
 H. F. Schaefer III,  N. E. Schultz,  N. Shenvi,  A. C. Simmonett,  A. Sodt,  
 D. Stuck,  K. S. Thanthiriwatte,  V. Vanovschi,  Tao Wang,  A. Warshel,  
 C. F. Williams,  Q. Wu,  X. Xu,  W. Zhang

 Please cite Q-Chem as follows:
 Y. Shao et al., Mol. Phys. 113, 184-215 (2015)
 DOI: 10.1080/00268976.2014.952696

 Q-Chem 5.2.1 for Intel X86 EM64T Linux

 Parts of Q-Chem use Armadillo 8.300.2 (Tropical Shenanigans).
 http://arma.sourceforge.net/

 Q-Chem begins on Tue Feb  8 14:21:48 2022  

Host: 
0

     Scratch files written to /gpfs/fs0/scratch/a/aspuru/rhickman/descriptor_computation/qchem319163//
 Jul1719 |scratch|qcdevops|jenkins|workspace|build_RNUM -1
Processing $rem in /scinet/niagara/software/commercial/qc52/config/preferences:
	 MEM_TOTAL  4000 
NAlpha2: 100
NElect   100
Mult     1

Checking the input file for inconsistencies... 	...done.

--------------------------------------------------------------
User input:
--------------------------------------------------------------
$molecule
0 1
C        -3.95210105780000    1.62082718480000   -0.00185845870000
N        -3.17761205370000    0.41352915960000    0.00020894320000
C        -3.67154980110000   -0.86144480100000    0.00186946320000
C        -2.65596260140000   -1.76782025780000    0.00256133710000
C        -1.81571026500000    0.34546010240000   -0.00023689410000
C        -1.44374491060000   -1.02354688680000    0.00101308360000
C        -0.09710125170000   -1.36827402880000    0.00006326340000
C         0.86494319660000   -0.36593543270000   -0.00159000590000
C         2.26090613960000   -0.77101919790000   -0.00309996080000
C         3.35108611850000   -0.01886680290000    0.00008384420000
F         3.44224560100000    1.30862164060000    0.00591823170000
F         4.58598343540000   -0.52945038980000   -0.00211251220000
C         0.46867432070000    0.98716725160000   -0.00225989060000
C        -0.85654510820000    1.35295353830000   -0.00168088660000
H        -5.01145154670000    1.37061978020000   -0.00414398840000
H        -3.72894504080000    2.21950899710000   -0.88876010350000
H        -3.73295422600000    2.22033986830000    0.88550601770000
H        -4.73221193400000   -1.02972994770000    0.00248678330000
H        -2.75003052800000   -2.83511142830000    0.00393845200000
H         0.19581117270000   -2.40787023820000    0.00077055070000
H         2.44833916640000   -1.83558854310000   -0.00723830940000
H         1.21912213330000    1.75959231050000   -0.00358021840000
H        -1.13891936970000    2.39495265500000   -0.00242440470000
$end

$rem
BASIS = 6-31G*
GUI = 2
METHOD = B3LYP
PRINT_ORBITALS false
MOLDEN_FORMAT false
--------------------------------------------------------------
 ----------------------------------------------------------------
             Standard Nuclear Orientation (Angstroms)
    I     Atom           X                Y                Z
 ----------------------------------------------------------------
    1      C       3.8482981662    -1.5641743031    -0.0016259176
    2      N       3.0577582532    -0.3673247036     0.0002964654
    3      C       3.5346283967     0.9141309202     0.0017817827
    4      C       2.5070297122     1.8068654287     0.0023720828
    5      C       1.6950689968    -0.3174460383    -0.0001353862
    6      C       1.3048576823     1.0464725420     0.0009416371
    7      C      -0.0462687824     1.3731882897    -0.0000306694
    8      C      -0.9948441564     0.3580935123    -0.0015365551
    9      C      -2.3960914056     0.7445019122    -0.0030760680
   10      C      -3.4761313296    -0.0221392145     0.0002245244
   11      F      -3.5495578211    -1.3507257163     0.0062342174
   12      F      -4.7177359667     0.4719100779    -0.0020179081
   13      C      -0.5805438343    -0.9895976017    -0.0020359759
   14      C       0.7494414887    -1.3376567239    -0.0014313688
   15      H       4.9042133886    -1.2998449385    -0.0039620101
   16      H       3.6331423508    -2.1658986331    -0.8884454334
   17      H       3.6371889976    -2.1664432638     0.8858207137
   18      H       4.5929490253     1.0965632243     0.0023592418
   19      H       2.5868386807     2.8753176341     0.0036079040
   20      H      -0.3530358919     2.4087809103     0.0005454555
   21      H      -2.5977220375     1.8064731795    -0.0073506214
   22      H      -1.3206112618    -1.7719740336    -0.0032425740
   23      H       1.0457034581    -2.3757927491    -0.0020432327
 ----------------------------------------------------------------
 Molecular Point Group                 C1    NOp =  1
 Largest Abelian Subgroup              C1    NOp =  1
 Nuclear Repulsion Energy =         827.19721541 hartrees
 There are       50 alpha and       50 beta electrons
 Requested basis set is 6-31G(d)
 There are 74 shells and 228 basis functions

 Total QAlloc Memory Limit   4000 MB
 Mega-Array Size       188 MB
 MEM_STATIC part       192 MB
 A cutoff of  1.0D-08 yielded   1815 shell pairs
 There are     18317 function pairs
 Smallest overlap matrix eigenvalue = 3.28E-04

 Scale SEOQF with 1.000000e-01/1.000000e-01/1.000000e+00

 Standard Electronic Orientation quadrupole field applied
 Nucleus-field energy     =     0.0000000371 hartrees
 Guess from superposition of atomic densities
 Warning:  Energy on first SCF cycle will be non-variational
 SAD guess density has 100.000000 electrons

 -----------------------------------------------------------------------
  General SCF calculation program by
  Eric Jon Sundstrom, Paul Horn, Yuezhi Mao, Dmitri Zuev, Alec White,
  David Stuck, Shaama M.S., Shane Yost, Joonho Lee, David Small,
  Daniel Levine, Susi Lehtola, Hugh Burton, Evgeny Epifanovsky,
  Bang C. Huynh
 -----------------------------------------------------------------------
 Exchange:     0.2000 Hartree-Fock + 0.0800 Slater + 0.7200 B88
 Correlation:  0.1900 VWN1RPA + 0.8100 LYP
 Using SG-1 standard quadrature grid
 A restricted SCF calculation will be
 performed using DIIS
 SCF converges when DIIS error is below 1.0e-05
 ---------------------------------------
  Cycle       Energy         DIIS error
 ---------------------------------------
    1    -682.5076117816      5.47e-02  
    2    -678.7659208614      5.79e-03  
    3    -678.5323555073      8.22e-03  
    4    -678.9737297012      1.79e-03  
    5    -678.9938646630      5.56e-04  
    6    -678.9954929587      2.84e-04  
    7    -678.9960363996      5.91e-05  
    8    -678.9960551094      2.20e-05  
    9    -678.9960582101      5.35e-06  Convergence criterion met
 ---------------------------------------
 SCF time:   CPU 33.31s  wall 34.00s 
 SCF   energy in the final basis set =     -678.9960582101
 Total energy in the final basis set =     -678.9960582101
 
 --------------------------------------------------------------
 
                    Orbital Energies (a.u.)
 --------------------------------------------------------------
 
 Alpha MOs
 -- Occupied --
-24.7321 -24.7208 -14.3823 -10.3416 -10.2348 -10.2132 -10.2086 -10.1911
-10.1904 -10.1841 -10.1792 -10.1771 -10.1764 -10.1679  -1.2715  -1.2108
 -0.9963  -0.8529  -0.8090  -0.7864  -0.7425  -0.7182  -0.6932  -0.6344
 -0.6137  -0.5887  -0.5717  -0.5593  -0.5297  -0.5070  -0.5057  -0.4755
 -0.4742  -0.4635  -0.4453  -0.4375  -0.4285  -0.4215  -0.4126  -0.4082
 -0.3946  -0.3939  -0.3826  -0.3610  -0.3431  -0.3323  -0.2795  -0.2656
 -0.2046  -0.1948
 -- Virtual --
 -0.0087   0.0003   0.0710   0.0873   0.0963   0.1004   0.1145   0.1330
  0.1482   0.1575   0.1592   0.1640   0.1702   0.1860   0.1982   0.2014
  0.2139   0.2524   0.2609   0.2832   0.3271   0.3344   0.3590   0.3837
  0.4212   0.4307   0.4635   0.4828   0.4940   0.5097   0.5106   0.5293
  0.5425   0.5468   0.5469   0.5633   0.5716   0.5729   0.5909   0.5969
  0.6025   0.6104   0.6240   0.6424   0.6437   0.6558   0.6707   0.6765
  0.7184   0.7369   0.7520   0.7700   0.7893   0.8121   0.8160   0.8326
  0.8368   0.8380   0.8479   0.8592   0.8762   0.8846   0.9128   0.9215
  0.9445   0.9521   0.9731   0.9901   1.0028   1.0294   1.0432   1.0756
  1.1125   1.1428   1.1553   1.1710   1.1927   1.2098   1.2170   1.2228
  1.2554   1.2839   1.3102   1.3275   1.3368   1.3382   1.3604   1.3742
  1.3959   1.4159   1.4435   1.4463   1.4645   1.4775   1.4973   1.4994
  1.5142   1.5355   1.5755   1.6005   1.6492   1.6578   1.7548   1.7872
  1.7936   1.7940   1.8414   1.8448   1.8487   1.8573   1.8881   1.8913
  1.9008   1.9268   1.9590   1.9674   1.9759   1.9859   2.0093   2.0096
  2.0260   2.0338   2.0507   2.0593   2.0978   2.1306   2.1371   2.1837
  2.2056   2.2072   2.2144   2.2447   2.2611   2.2766   2.2836   2.3152
  2.3421   2.3657   2.4022   2.4041   2.4566   2.4992   2.5170   2.5326
  2.5577   2.6078   2.6369   2.6512   2.7081   2.7239   2.7321   2.7651
  2.8176   2.8350   2.9029   2.9183   2.9655   2.9954   3.0568   3.1513
  3.1656   3.2454   3.3542   3.5012   4.0404   4.0909   4.1246   4.1310
  4.1725   4.1879   4.2809   4.3061   4.4104   4.4963   4.5252   4.7510
  4.8492   5.2993
 --------------------------------------------------------------
 
          Ground-State Mulliken Net Atomic Charges

     Atom                 Charge (a.u.)
  ----------------------------------------
      1 C                    -0.324948
      2 N                    -0.484255
      3 C                     0.034701
      4 C                    -0.239068
      5 C                     0.309733
      6 C                     0.122803
      7 C                    -0.286126
      8 C                     0.193600
      9 C                    -0.290698
     10 C                     0.527988
     11 F                    -0.240387
     12 F                    -0.256488
     13 C                    -0.221328
     14 C                    -0.165154
     15 H                     0.170064
     16 H                     0.172935
     17 H                     0.172913
     18 H                     0.145139
     19 H                     0.126399
     20 H                     0.122623
     21 H                     0.153615
     22 H                     0.132451
     23 H                     0.123490
  ----------------------------------------
  Sum of atomic charges =     0.000000

 -----------------------------------------------------------------
                    Cartesian Multipole Moments
 -----------------------------------------------------------------
    Charge (ESU x 10^10)
                 0.0000
    Dipole Moment (Debye)
         X       3.6355      Y      -0.7141      Z      -0.0046
       Tot       3.7050
    Quadrupole Moments (Debye-Ang)
        XX     -70.1989     XY      -5.6941     YY     -71.5292
        XZ       0.0041     YZ       0.0088     ZZ     -81.8050
    Octopole Moments (Debye-Ang^2)
       XXX      48.8629    XXY     -14.4682    XYY      -8.6864
       YYY      -5.5934    XXZ      -0.0210    XYZ       0.0172
       YYZ      -0.0072    XZZ     -23.8068    YZZ      -6.8428
       ZZZ       0.0418
    Hexadecapole Moments (Debye-Ang^3)
      XXXX   -3358.0971   XXXY     -28.8925   XXYY    -663.8919
      XYYY       0.4445   YYYY    -648.8967   XXXZ      -0.1658
      XXYZ       0.0895   XYYZ       0.0582   YYYZ      -0.0357
      XXZZ    -611.9481   XYZZ      -2.2386   YYZZ    -137.6252
      XZZZ      -0.1664   YZZZ      -0.0962   ZZZZ     -85.3272
 -----------------------------------------------------------------
Archival summary:
1\1\nia2015.scinet.local\SP\ProcedureUnspecified\6-31G*\21119\rhickman\TueFeb814:22:222022TueFeb814:22:222022\0\\#,ProcedureUnspecified,6-31G*,\\0,1\N\C,1,1.3636\C,1,1.36731,2,108.316\H,3,1.07393,1,120.192,2,179.999,0\C,3,1.36123,1,110.571,2,0.00169085,0\H,5,1.07143,3,126.711,1,179.993,0\C,2,1.39106,1,130.731,3,-179.995,0\H,7,1.07958,2,121.245,1,0.0164219,0\C,7,1.37478,2,118.162,1,-179.978,0\H,9,1.07695,7,118.743,2,179.988,0\C,9,1.40993,7,121.754,2,0.00759532,0\C,11,1.38932,9,119.852,7,-0.0177619,0\H,12,1.08007,11,120.44,9,-179.989,0\C,12,1.39007,11,119.466,9,0.00129852,0\C,1,1.43437,2,125.542,3,-179.952,0\H,15,1.0885,1,109.391,2,179.82,0\H,15,1.09308,1,110.606,2,59.9492,0\H,15,1.09309,1,110.623,2,-60.2992,0\C,11,1.45355,9,122.505,7,179.957,0\H,19,1.08095,11,116.167,9,-179.715,0\C,19,1.32448,11,129.215,9,0.296538,0\F,21,1.33063,19,128.532,11,0.022263,0\F,21,1.33629,19,122.933,11,-179.988,0\\\@

 Total job time:  33.60s(wall), 33.49s(cpu) 
 Tue Feb  8 14:22:22 2022

        *************************************************************
        *                                                           *
        *  Thank you very much for using Q-Chem.  Have a nice day.  *
        *                                                           *
        *************************************************************


