
Running Job 1 of 1 fragments/B024/conf-1/spe_input.inp
qchem fragments/B024/conf-1/spe_input.inp_131611.0 /gpfs/fs0/scratch/a/aspuru/rhickman/descriptor_computation/qchem131611/ 0
/scinet/niagara/software/commercial/qc52/exe/qcprog.exe_s fragments/B024/conf-1/spe_input.inp_131611.0 /gpfs/fs0/scratch/a/aspuru/rhickman/descriptor_computation/qchem131611/
                  Welcome to Q-Chem
     A Quantum Leap Into The Future Of Chemistry


 Q-Chem 5.2, Q-Chem, Inc., Pleasanton, CA (2019)

 License issued to: SRG Alan Aspuru-Guzik, University of Toronto

 Yihan Shao,  Zhengting Gan,  E. Epifanovsky,  A. T. B. Gilbert,  M. Wormit,  
 J. Kussmann,  A. W. Lange,  A. Behn,  Jia Deng,  Xintian Feng,  D. Ghosh,  
 M. Goldey,  P. R. Horn,  L. D. Jacobson,  I. Kaliman,  T. Kus,  A. Landau,  
 Jie Liu,  E. I. Proynov,  R. M. Richard,  R. P. Steele,  E. J. Sundstrom,  
 H. L. Woodcock III,  P. M. Zimmerman,  D. Zuev,  B. Albrecht,  E. Alguire,  
 S. A. Baeppler,  D. Barton,  Z. Benda,  Y. A. Bernard,  E. J. Berquist,  
 K. B. Bravaya,  H. Burton,  D. Casanova,  Chun-Min Chang,  Yunqing Chen,  
 A. Chien,  K. D. Closser,  M. P. Coons,  S. Coriani,  S. Dasgupta,  
 A. L. Dempwolff,  M. Diedenhofen,  Hainam Do,  R. G. Edgar,  Po-Tung Fang,  
 S. Faraji,  S. Fatehi,  Qingguo Feng,  K. D. Fenk,  J. Fosso-Tande,  
 J. Gayvert,  Qinghui Ge,  A. Ghysels,  G. Gidofalvi,  J. Gomes,  
 J. Gonthier,  A. Gunina,  D. Hait,  M. W. D. Hanson-Heine,  
 P. H. P. Harbach,  A. W. Hauser,  M. F. Herbst,  J. E. Herr,  
 E. G. Hohenstein,  Z. C. Holden,  Kerwin Hui,  B. C. Huynh,  T.-C. Jagau,  
 Hyunjun Ji,  B. Kaduk,  K. Khistyaev,  Jaehoon Kim,  P. Klunzinger,  K. Koh,  
 D. Kosenkov,  L. Koulias,  T. Kowalczyk,  C. M. Krauter,  A. Kunitsa,  
 Ka Un Lao,  A. Laurent,  K. V. Lawler,  Joonho Lee,  D. Lefrancois,  
 S. Lehtola,  D. S. Levine,  Yi-Pei Li,  You-Sheng Lin,  Fenglai Liu,  
 E. Livshits,  A. Luenser,  P. Manohar,  E. Mansoor,  S. F. Manzer,  
 Shan-Ping Mao,  Yuezhi Mao,  N. Mardirossian,  A. V. Marenich,  
 T. Markovich,  L. A. Martinez-Martinez,  S. A. Maurer,  N. J. Mayhall,  
 S. C. McKenzie,  J.-M. Mewes,  P. Morgante,  A. F. Morrison,  
 J. W. Mullinax,  K. Nanda,  T. S. Nguyen-Beck,  R. Olivares-Amaya,  
 J. A. Parkhill,  Zheng Pei,  T. M. Perrine,  F. Plasser,  P. Pokhilko,  
 S. Prager,  A. Prociuk,  E. Ramos,  D. R. Rehn,  F. Rob,  M. Scheurer,  
 M. Schneider,  N. Sergueev,  S. M. Sharada,  S. Sharma,  D. W. Small,  
 T. Stauch,  T. Stein,  Yu-Chuan Su,  A. J. W. Thom,  A. Tkatchenko,  
 T. Tsuchimochi,  N. M. Tubman,  L. Vogt,  M. L. Vidal,  O. Vydrov,  
 M. A. Watson,  J. Wenzel,  M. de Wergifosse,  T. A. Wesolowski,  A. White,  
 J. Witte,  A. Yamada,  Jun Yang,  K. Yao,  S. Yeganeh,  S. R. Yost,  
 Zhi-Qiang You,  A. Zech,  Igor Ying Zhang,  Xing Zhang,  Yan Zhao,  
 Ying Zhu,  B. R. Brooks,  G. K. L. Chan,  C. J. Cramer,  M. S. Gordon,  
 W. J. Hehre,  A. Klamt,  M. W. Schmidt,  C. D. Sherrill,  D. G. Truhlar,  
 A. Aspuru-Guzik,  R. Baer,  A. T. Bell,  N. A. Besley,  Jeng-Da Chai,  
 A. E. DePrince, III,  R. A. DiStasio Jr.,  A. Dreuw,  B. D. Dunietz,  
 T. R. Furlani,  Chao-Ping Hsu,  Yousung Jung,  Jing Kong,  D. S. Lambrecht,  
 WanZhen Liang,  C. Ochsenfeld,  V. A. Rassolov,  L. V. Slipchenko,  
 J. E. Subotnik,  T. Van Voorhis,  J. M. Herbert,  A. I. Krylov,  
 P. M. W. Gill,  M. Head-Gordon

 Contributors to earlier versions of Q-Chem not listed above: 
 R. D. Adamson,  B. Austin,  J. Baker,  G. J. O. Beran,  K. Brandhorst,  
 S. T. Brown,  E. F. C. Byrd,  A. K. Chakraborty,  C.-L. Cheng,  
 Siu Hung Chien,  D. M. Chipman,  D. L. Crittenden,  H. Dachsel,  
 R. J. Doerksen,  A. D. Dutoi,  L. Fusti-Molnar,  W. A. Goddard III,  
 A. Golubeva-Zadorozhnaya,  S. R. Gwaltney,  G. Hawkins,  A. Heyden,  
 S. Hirata,  G. Kedziora,  F. J. Keil,  C. Kelley,  Jihan Kim,  R. A. King,  
 R. Z. Khaliullin,  P. P. Korambath,  W. Kurlancheek,  A. M. Lee,  M. S. Lee,  
 S. V. Levchenko,  Ching Yeh Lin,  D. Liotard,  R. C. Lochan,  I. Lotan,  
 P. E. Maslen,  N. Nair,  D. P. O'Neill,  D. Neuhauser,  E. Neuscamman,  
 C. M. Oana,  R. Olson,  B. Peters,  R. Peverati,  P. A. Pieniazek,  
 Y. M. Rhee,  J. Ritchie,  M. A. Rohrdanz,  E. Rosta,  N. J. Russ,  
 H. F. Schaefer III,  N. E. Schultz,  N. Shenvi,  A. C. Simmonett,  A. Sodt,  
 D. Stuck,  K. S. Thanthiriwatte,  V. Vanovschi,  Tao Wang,  A. Warshel,  
 C. F. Williams,  Q. Wu,  X. Xu,  W. Zhang

 Please cite Q-Chem as follows:
 Y. Shao et al., Mol. Phys. 113, 184-215 (2015)
 DOI: 10.1080/00268976.2014.952696

 Q-Chem 5.2.1 for Intel X86 EM64T Linux

 Parts of Q-Chem use Armadillo 8.300.2 (Tropical Shenanigans).
 http://arma.sourceforge.net/

 Q-Chem begins on Mon Feb  7 16:32:54 2022  

Host: 
0

     Scratch files written to /gpfs/fs0/scratch/a/aspuru/rhickman/descriptor_computation/qchem131611//
 Jul1719 |scratch|qcdevops|jenkins|workspace|build_RNUM -1
Processing $rem in /scinet/niagara/software/commercial/qc52/config/preferences:
	 MEM_TOTAL  4000 
NAlpha2: 106
NElect   106
Mult     1

Checking the input file for inconsistencies... 	...done.

--------------------------------------------------------------
User input:
--------------------------------------------------------------
$molecule
0 1
C        -5.23380095800000    1.45353094500000   -0.06682384350000
C        -4.63038530240000    0.27559325590000    0.03517568130000
C        -3.19210583720000    0.02730559060000    0.02274519070000
C        -2.75336311120000   -1.31056320020000   -0.03180776990000
C        -1.42003772590000   -1.65623967480000   -0.05361999470000
C        -0.49952245250000   -0.62097971320000   -0.01413900340000
O         0.84784356450000   -0.71013966590000   -0.02192397790000
C         1.32344718510000    0.56547855600000    0.03416109190000
C         2.74167667690000    0.79777781930000    0.03947707200000
C         3.67497076930000   -0.14665980550000   -0.01115586290000
F         3.48430335240000   -1.45287526310000   -0.07467971760000
F         4.97900186830000    0.11386668950000   -0.00416745220000
C         0.30636847910000    1.47884293680000    0.07900729990000
C        -0.90433180350000    0.73021708130000    0.04789138880000
C        -2.25760184590000    1.05243693700000    0.06641416940000
H        -6.30701217890000    1.53439413540000   -0.05033088360000
H        -4.69492677500000    2.37883690030000   -0.17602172610000
H        -5.23883780510000   -0.61574352080000    0.12708632860000
H        -3.49649187870000   -2.09402461500000   -0.06131456470000
H        -1.09764324830000   -2.68390156590000   -0.09742471450000
H         3.06813290540000    1.82349417510000    0.08816829590000
H         0.40940541300000    2.54345957160000    0.12682762720000
H        -2.56198705310000    2.08503583300000    0.12160369220000
$end

$rem
BASIS = 6-31G*
GUI = 2
METHOD = B3LYP
PRINT_ORBITALS false
MOLDEN_FORMAT false
--------------------------------------------------------------
 ----------------------------------------------------------------
             Standard Nuclear Orientation (Angstroms)
    I     Atom           X                Y                Z
 ----------------------------------------------------------------
    1      C       5.1928934030    -1.0394365150    -0.1014246586
    2      C       4.5038742528     0.0870778783     0.0337400123
    3      C       3.0511358691     0.2283117313     0.0264400737
    4      C       2.5143656891     1.5309900948     0.0099791582
    5      C       1.1590648520     1.7773561545    -0.0037316780
    6      C       0.3178710560     0.6759951851     0.0044730736
    7      O      -1.0324023143     0.6652114187    -0.0026559239
    8      C      -1.4120759470    -0.6432427819     0.0158298737
    9      C      -2.8091737783    -0.9800987823     0.0123971803
   10      C      -3.8099602546    -0.1063803945    -0.0122319057
   11      F      -3.7167124368     1.2116657439    -0.0376757107
   12      F      -5.0910799507    -0.4629564675    -0.0146460579
   13      C      -0.3300435775    -1.4796076356     0.0356931942
   14      C       0.8217948516    -0.6427010116     0.0279742770
   15      C       2.1952438912    -0.8641110410     0.0391040175
   16      H       6.2691577641    -1.0409587253    -0.0857432740
   17      H       4.7240306775    -1.9985952016    -0.2381105472
   18      H       5.0446299683     1.0180337607     0.1522628614
   19      H       3.1973380032     2.3679120233     0.0042078408
   20      H       0.7613305905     2.7791258624    -0.0182549250
   21      H      -3.0586448222    -2.0281728002     0.0309335832
   22      H      -0.3538267230    -2.5498702534     0.0525533096
   23      H       2.5753926991    -1.8724667943     0.0648387500
 ----------------------------------------------------------------
 Molecular Point Group                 C1    NOp =  1
 Largest Abelian Subgroup              C1    NOp =  1
 Nuclear Repulsion Energy =         897.72411060 hartrees
 There are       53 alpha and       53 beta electrons
 Requested basis set is 6-31G(d)
 There are 76 shells and 241 basis functions

 Total QAlloc Memory Limit   4000 MB
 Mega-Array Size       188 MB
 MEM_STATIC part       192 MB
 A cutoff of  1.0D-08 yielded   1761 shell pairs
 There are     19016 function pairs
 Smallest overlap matrix eigenvalue = 3.36E-04

 Scale SEOQF with 1.000000e-02/1.000000e-01/1.000000e+00

 Standard Electronic Orientation quadrupole field applied
 Nucleus-field energy     =     0.0000000123 hartrees
 Guess from superposition of atomic densities
 Warning:  Energy on first SCF cycle will be non-variational
 SAD guess density has 106.000000 electrons

 -----------------------------------------------------------------------
  General SCF calculation program by
  Eric Jon Sundstrom, Paul Horn, Yuezhi Mao, Dmitri Zuev, Alec White,
  David Stuck, Shaama M.S., Shane Yost, Joonho Lee, David Small,
  Daniel Levine, Susi Lehtola, Hugh Burton, Evgeny Epifanovsky,
  Bang C. Huynh
 -----------------------------------------------------------------------
 Exchange:     0.2000 Hartree-Fock + 0.0800 Slater + 0.7200 B88
 Correlation:  0.1900 VWN1RPA + 0.8100 LYP
 Using SG-1 standard quadrature grid
 A restricted SCF calculation will be
 performed using DIIS
 SCF converges when DIIS error is below 1.0e-05
 ---------------------------------------
  Cycle       Energy         DIIS error
 ---------------------------------------
    1    -740.6372659302      5.27e-02  
    2    -736.6976710749      5.69e-03  
    3    -736.4318413509      8.11e-03  
    4    -736.9138879189      1.96e-03  
    5    -736.9410983689      6.16e-04  
    6    -736.9430930861      2.89e-04  
    7    -736.9436454222      5.94e-05  
    8    -736.9436696969      2.49e-05  
    9    -736.9436742308      6.97e-06  Convergence criterion met
 ---------------------------------------
 SCF time:   CPU 35.28s  wall 35.00s 
 SCF   energy in the final basis set =     -736.9436742308
 Total energy in the final basis set =     -736.9436742308
 
 --------------------------------------------------------------
 
                    Orbital Energies (a.u.)
 --------------------------------------------------------------
 
 Alpha MOs
 -- Occupied --
-24.7456 -24.7423 -19.2185 -10.3669 -10.2620 -10.2444 -10.2156 -10.1951
-10.1936 -10.1934 -10.1910 -10.1895 -10.1891 -10.1878 -10.1763  -1.2911
 -1.2306  -1.1245  -0.8657  -0.8309  -0.8025  -0.7835  -0.7308  -0.7278
 -0.6615  -0.6355  -0.6084  -0.5953  -0.5777  -0.5641  -0.5432  -0.5251
 -0.5219  -0.4785  -0.4707  -0.4675  -0.4546  -0.4452  -0.4449  -0.4447
 -0.4230  -0.4138  -0.4073  -0.3913  -0.3873  -0.3676  -0.3497  -0.3374
 -0.3183  -0.2955  -0.2748  -0.2181  -0.2063
 -- Virtual --
 -0.0412  -0.0206   0.0271   0.0732   0.0870   0.1010   0.1048   0.1153
  0.1365   0.1409   0.1494   0.1604   0.1759   0.1885   0.1927   0.2088
  0.2141   0.2339   0.2518   0.2984   0.3184   0.3298   0.3600   0.3738
  0.3917   0.4267   0.4324   0.4506   0.4645   0.4947   0.5024   0.5058
  0.5111   0.5348   0.5443   0.5498   0.5553   0.5621   0.5686   0.5784
  0.5920   0.5958   0.6034   0.6062   0.6147   0.6217   0.6315   0.6349
  0.6463   0.6670   0.6978   0.7020   0.7363   0.7576   0.7723   0.8082
  0.8168   0.8231   0.8295   0.8460   0.8573   0.8791   0.8860   0.8933
  0.9178   0.9228   0.9513   0.9612   0.9724   0.9861   1.0033   1.0048
  1.0382   1.0449   1.0779   1.0918   1.1261   1.1361   1.1543   1.1569
  1.1939   1.2052   1.2288   1.2457   1.2479   1.2801   1.2927   1.3099
  1.3251   1.3484   1.3532   1.3541   1.3718   1.3970   1.4172   1.4417
  1.4518   1.4611   1.4699   1.4794   1.4877   1.5027   1.5213   1.5320
  1.5950   1.6732   1.6813   1.6960   1.7376   1.7799   1.7902   1.7964
  1.8156   1.8320   1.8408   1.8571   1.8654   1.8845   1.8888   1.8901
  1.9357   1.9443   1.9523   1.9550   1.9824   1.9962   2.0028   2.0340
  2.0478   2.0604   2.0641   2.0962   2.1035   2.1410   2.1536   2.1959
  2.2185   2.2397   2.2434   2.2535   2.2880   2.2968   2.3072   2.3786
  2.3882   2.3988   2.4451   2.4485   2.5026   2.5152   2.5347   2.5655
  2.5998   2.6103   2.6545   2.6593   2.6840   2.6949   2.7303   2.7684
  2.8173   2.8364   2.8793   2.9022   2.9435   2.9938   3.0561   3.0871
  3.1114   3.2200   3.2581   3.2963   3.5000   4.0130   4.0845   4.0937
  4.1157   4.1560   4.1574   4.2412   4.2535   4.3655   4.3944   4.5504
  4.7146   4.7947   4.8534   5.2553
 --------------------------------------------------------------
 
          Ground-State Mulliken Net Atomic Charges

     Atom                 Charge (a.u.)
  ----------------------------------------
      1 C                    -0.352306
      2 C                    -0.116798
      3 C                     0.171166
      4 C                    -0.211876
      5 C                    -0.185662
      6 C                     0.324339
      7 O                    -0.518873
      8 C                     0.366540
      9 C                    -0.323894
     10 C                     0.566608
     11 F                    -0.222327
     12 F                    -0.243512
     13 C                    -0.249639
     14 C                     0.128264
     15 C                    -0.264140
     16 H                     0.142186
     17 H                     0.139649
     18 H                     0.125635
     19 H                     0.129942
     20 H                     0.143754
     21 H                     0.177081
     22 H                     0.144057
     23 H                     0.129805
  ----------------------------------------
  Sum of atomic charges =     0.000000

 -----------------------------------------------------------------
                    Cartesian Multipole Moments
 -----------------------------------------------------------------
    Charge (ESU x 10^10)
                 0.0000
    Dipole Moment (Debye)
         X       0.2713      Y      -1.1183      Z       0.0324
       Tot       1.1512
    Quadrupole Moments (Debye-Ang)
        XX     -82.1114     XY       4.1223     YY     -74.6869
        XZ       0.0163     YZ       0.1784     ZZ     -86.7204
    Octopole Moments (Debye-Ang^2)
       XXX     -32.6229    XXY      -1.4861    XYY     -16.6386
       YYY       4.2569    XXZ       0.6873    XYZ       1.4418
       YYZ      -0.2998    XZZ     -37.0457    YZZ       4.8039
       ZZZ      -0.5540
    Hexadecapole Moments (Debye-Ang^3)
      XXXX   -4602.6136   XXXY       3.3761   XXYY    -829.3703
      XYYY      -0.6780   YYYY    -576.4821   XXXZ       3.8387
      XXYZ       7.0943   XYYZ      -1.6036   YYYZ      -0.4553
      XXZZ    -830.5997   XYZZ      -9.2433   YYZZ    -130.3052
      XZZZ       2.8651   YZZZ      -0.2342   ZZZZ     -83.9364
 -----------------------------------------------------------------
Archival summary:
1\1\nia1977.scinet.local\SP\ProcedureUnspecified\6-31G*\21128\rhickman\MonFeb716:33:302022MonFeb716:33:302022\0\\#,ProcedureUnspecified,6-31G*,\\0,1\O\C,1,1.35034\C,1,1.36255,2,106.633\C,3,1.36773,1,111.529,2,0.0399404,0\H,4,1.07066,3,126.436,1,-180,0\C,2,1.38588,1,127.826,3,-179.763,0\H,6,1.07794,2,120.975,1,-0.0504341,0\C,6,1.37758,2,117.063,1,179.833,0\H,8,1.08024,6,118.908,2,-179.992,0\C,8,1.40903,6,122.7,2,0.24297,0\C,10,1.38784,8,119.531,6,-0.469666,0\H,11,1.07794,10,121.269,8,-179.19,0\C,11,1.39123,10,118.913,8,0.339315,0\C,3,1.43714,1,119.732,2,-179.946,0\H,14,1.07751,3,116.938,1,-179.798,0\C,14,1.32875,3,125.318,1,0.231296,0\F,16,1.32159,14,127.085,3,-0.00472736,0\F,16,1.32982,14,123.32,3,179.989,0\C,10,1.45961,8,117.948,6,179.721,0\H,19,1.08312,10,114.475,8,7.37985,0\C,19,1.32742,10,126.743,8,-171.878,0\H,21,1.07634,19,122.893,10,0.180458,0\H,21,1.07638,19,121.247,10,179.801,0\\\@

 Total job time:  35.84s(wall), 35.46s(cpu) 
 Mon Feb  7 16:33:30 2022

        *************************************************************
        *                                                           *
        *  Thank you very much for using Q-Chem.  Have a nice day.  *
        *                                                           *
        *************************************************************


