23
 energy: -38.066823263297 gnorm: 0.000042318228 xtb: 6.5.0 (unknown)
C           -4.52296409660000       -1.31753990530000       -0.03883351270000
C           -3.82460811440000       -0.18805514070000       -0.06106554720000
C           -2.37579172870000       -0.05936748260000        0.00951711070000
C           -1.51577536190000       -1.14671426110000        0.16698003710000
C           -0.15269119780000       -0.95979928960000        0.22629613480000
C            0.41210736150000        0.31413798190000        0.13122359280000
C            1.85172447680000        0.51566806730000        0.21089659030000
C            2.80572499320000       -0.37767748140000       -0.00302792430000
F            2.67628866990000       -1.64959517310000       -0.36365782820000
F            4.10481672290000       -0.09273458210000        0.10469225520000
C           -0.43970049150000        1.42116766170000       -0.02309307070000
C            0.09953507430000        2.81575161220000       -0.14159675100000
C           -1.80588041090000        1.21128401030000       -0.08095192220000
H           -5.59779930110000       -1.31102299220000       -0.09789670560000
H           -4.06236524150000       -2.28741936450000        0.03603354980000
H           -4.35536999440000        0.75301668230000       -0.14333531400000
H           -1.91302707880000       -2.14576466110000        0.24922282170000
H            0.48591825960000       -1.81752261380000        0.36329646150000
H            2.20599165790000        1.50262074940000        0.46584466190000
H            0.60566635550000        3.11450808090000        0.77633688140000
H           -0.70874154890000        3.51902055970000       -0.32488241360000
H            0.81083505680000        2.88878588880000       -0.96279099300000
H           -2.45887205830000        2.06484814870000       -0.20364371640000
