
Running Job 1 of 1 fragments/A024/conf-0/spe_input.inp
qchem fragments/A024/conf-0/spe_input.inp_329446.0 /gpfs/fs0/scratch/a/aspuru/rhickman/descriptor_computation/qchem329446/ 0
/scinet/niagara/software/commercial/qc52/exe/qcprog.exe_s fragments/A024/conf-0/spe_input.inp_329446.0 /gpfs/fs0/scratch/a/aspuru/rhickman/descriptor_computation/qchem329446/
                  Welcome to Q-Chem
     A Quantum Leap Into The Future Of Chemistry


 Q-Chem 5.2, Q-Chem, Inc., Pleasanton, CA (2019)

 License issued to: SRG Alan Aspuru-Guzik, University of Toronto

 Yihan Shao,  Zhengting Gan,  E. Epifanovsky,  A. T. B. Gilbert,  M. Wormit,  
 J. Kussmann,  A. W. Lange,  A. Behn,  Jia Deng,  Xintian Feng,  D. Ghosh,  
 M. Goldey,  P. R. Horn,  L. D. Jacobson,  I. Kaliman,  T. Kus,  A. Landau,  
 Jie Liu,  E. I. Proynov,  R. M. Richard,  R. P. Steele,  E. J. Sundstrom,  
 H. L. Woodcock III,  P. M. Zimmerman,  D. Zuev,  B. Albrecht,  E. Alguire,  
 S. A. Baeppler,  D. Barton,  Z. Benda,  Y. A. Bernard,  E. J. Berquist,  
 K. B. Bravaya,  H. Burton,  D. Casanova,  Chun-Min Chang,  Yunqing Chen,  
 A. Chien,  K. D. Closser,  M. P. Coons,  S. Coriani,  S. Dasgupta,  
 A. L. Dempwolff,  M. Diedenhofen,  Hainam Do,  R. G. Edgar,  Po-Tung Fang,  
 S. Faraji,  S. Fatehi,  Qingguo Feng,  K. D. Fenk,  J. Fosso-Tande,  
 J. Gayvert,  Qinghui Ge,  A. Ghysels,  G. Gidofalvi,  J. Gomes,  
 J. Gonthier,  A. Gunina,  D. Hait,  M. W. D. Hanson-Heine,  
 P. H. P. Harbach,  A. W. Hauser,  M. F. Herbst,  J. E. Herr,  
 E. G. Hohenstein,  Z. C. Holden,  Kerwin Hui,  B. C. Huynh,  T.-C. Jagau,  
 Hyunjun Ji,  B. Kaduk,  K. Khistyaev,  Jaehoon Kim,  P. Klunzinger,  K. Koh,  
 D. Kosenkov,  L. Koulias,  T. Kowalczyk,  C. M. Krauter,  A. Kunitsa,  
 Ka Un Lao,  A. Laurent,  K. V. Lawler,  Joonho Lee,  D. Lefrancois,  
 S. Lehtola,  D. S. Levine,  Yi-Pei Li,  You-Sheng Lin,  Fenglai Liu,  
 E. Livshits,  A. Luenser,  P. Manohar,  E. Mansoor,  S. F. Manzer,  
 Shan-Ping Mao,  Yuezhi Mao,  N. Mardirossian,  A. V. Marenich,  
 T. Markovich,  L. A. Martinez-Martinez,  S. A. Maurer,  N. J. Mayhall,  
 S. C. McKenzie,  J.-M. Mewes,  P. Morgante,  A. F. Morrison,  
 J. W. Mullinax,  K. Nanda,  T. S. Nguyen-Beck,  R. Olivares-Amaya,  
 J. A. Parkhill,  Zheng Pei,  T. M. Perrine,  F. Plasser,  P. Pokhilko,  
 S. Prager,  A. Prociuk,  E. Ramos,  D. R. Rehn,  F. Rob,  M. Scheurer,  
 M. Schneider,  N. Sergueev,  S. M. Sharada,  S. Sharma,  D. W. Small,  
 T. Stauch,  T. Stein,  Yu-Chuan Su,  A. J. W. Thom,  A. Tkatchenko,  
 T. Tsuchimochi,  N. M. Tubman,  L. Vogt,  M. L. Vidal,  O. Vydrov,  
 M. A. Watson,  J. Wenzel,  M. de Wergifosse,  T. A. Wesolowski,  A. White,  
 J. Witte,  A. Yamada,  Jun Yang,  K. Yao,  S. Yeganeh,  S. R. Yost,  
 Zhi-Qiang You,  A. Zech,  Igor Ying Zhang,  Xing Zhang,  Yan Zhao,  
 Ying Zhu,  B. R. Brooks,  G. K. L. Chan,  C. J. Cramer,  M. S. Gordon,  
 W. J. Hehre,  A. Klamt,  M. W. Schmidt,  C. D. Sherrill,  D. G. Truhlar,  
 A. Aspuru-Guzik,  R. Baer,  A. T. Bell,  N. A. Besley,  Jeng-Da Chai,  
 A. E. DePrince, III,  R. A. DiStasio Jr.,  A. Dreuw,  B. D. Dunietz,  
 T. R. Furlani,  Chao-Ping Hsu,  Yousung Jung,  Jing Kong,  D. S. Lambrecht,  
 WanZhen Liang,  C. Ochsenfeld,  V. A. Rassolov,  L. V. Slipchenko,  
 J. E. Subotnik,  T. Van Voorhis,  J. M. Herbert,  A. I. Krylov,  
 P. M. W. Gill,  M. Head-Gordon

 Contributors to earlier versions of Q-Chem not listed above: 
 R. D. Adamson,  B. Austin,  J. Baker,  G. J. O. Beran,  K. Brandhorst,  
 S. T. Brown,  E. F. C. Byrd,  A. K. Chakraborty,  C.-L. Cheng,  
 Siu Hung Chien,  D. M. Chipman,  D. L. Crittenden,  H. Dachsel,  
 R. J. Doerksen,  A. D. Dutoi,  L. Fusti-Molnar,  W. A. Goddard III,  
 A. Golubeva-Zadorozhnaya,  S. R. Gwaltney,  G. Hawkins,  A. Heyden,  
 S. Hirata,  G. Kedziora,  F. J. Keil,  C. Kelley,  Jihan Kim,  R. A. King,  
 R. Z. Khaliullin,  P. P. Korambath,  W. Kurlancheek,  A. M. Lee,  M. S. Lee,  
 S. V. Levchenko,  Ching Yeh Lin,  D. Liotard,  R. C. Lochan,  I. Lotan,  
 P. E. Maslen,  N. Nair,  D. P. O'Neill,  D. Neuhauser,  E. Neuscamman,  
 C. M. Oana,  R. Olson,  B. Peters,  R. Peverati,  P. A. Pieniazek,  
 Y. M. Rhee,  J. Ritchie,  M. A. Rohrdanz,  E. Rosta,  N. J. Russ,  
 H. F. Schaefer III,  N. E. Schultz,  N. Shenvi,  A. C. Simmonett,  A. Sodt,  
 D. Stuck,  K. S. Thanthiriwatte,  V. Vanovschi,  Tao Wang,  A. Warshel,  
 C. F. Williams,  Q. Wu,  X. Xu,  W. Zhang

 Please cite Q-Chem as follows:
 Y. Shao et al., Mol. Phys. 113, 184-215 (2015)
 DOI: 10.1080/00268976.2014.952696

 Q-Chem 5.2.1 for Intel X86 EM64T Linux

 Parts of Q-Chem use Armadillo 8.300.2 (Tropical Shenanigans).
 http://arma.sourceforge.net/

 Q-Chem begins on Tue Feb  8 14:52:56 2022  

Host: 
0

     Scratch files written to /gpfs/fs0/scratch/a/aspuru/rhickman/descriptor_computation/qchem329446//
 Jul1719 |scratch|qcdevops|jenkins|workspace|build_RNUM -1
Processing $rem in /scinet/niagara/software/commercial/qc52/config/preferences:
	 MEM_TOTAL  4000 
NAlpha2: 182
NElect   182
Mult     1

Checking the input file for inconsistencies... 	...done.

--------------------------------------------------------------
User input:
--------------------------------------------------------------
$molecule
0 1
C        -4.50683584550000    0.14524644010000    1.48142843220000
C        -3.73854700360000    0.08366601100000    0.14863250730000
C        -2.93837935840000   -1.20420996710000    0.11202641750000
C        -1.54390025590000   -1.21326473490000    0.00478038330000
N        -0.83014204450000   -0.02817033600000   -0.10102953950000
C        -1.45882691290000    1.20883001500000   -0.08975241450000
C        -2.84783720070000    1.30656468370000    0.04147796710000
C        -3.42142254070000    2.57073715960000    0.05486706240000
C        -2.66596948230000    3.72191244460000   -0.06701679920000
C        -1.29593401790000    3.61671382920000   -0.22344677190000
C        -0.69994732780000    2.37339635090000   -0.23903595730000
C         0.58074806290000   -0.08288680400000   -0.22843410860000
C         1.16116431360000   -0.47593405050000   -1.43011466630000
C         2.53419071230000   -0.52778484810000   -1.54930614460000
C         3.36393894680000   -0.18740772110000   -0.47729457290000
C         4.80177309920000   -0.26306313660000   -0.67660193620000
C         5.77039780640000    0.01244084650000    0.18472927930000
F         5.65667081110000    0.42490453010000    1.44107977030000
F         7.06256968890000   -0.09522881080000   -0.11765880990000
C         2.77106070200000    0.20623315990000    0.72468429660000
C         1.39700287920000    0.25598770990000    0.84582352460000
C        -0.86140343770000   -2.43307770290000    0.03223975160000
C        -1.54413952610000   -3.62729769510000    0.12705038400000
C        -2.92486899490000   -3.62698626330000    0.20537917330000
C        -3.60032995740000   -2.42092526580000    0.20515306380000
C        -4.72272737700000    0.08938527350000   -1.03537917210000
H        -3.80501149960000    0.13718530360000    2.31337373320000
H        -5.17213480420000   -0.70722337490000    1.58636320190000
H        -5.10282701230000    1.05144411000000    1.54448892760000
H        -4.49144967100000    2.66627330520000    0.16121519830000
H        -3.14444072940000    4.68916725810000   -0.04938158840000
H        -0.68728921330000    4.50136678540000   -0.33707606150000
H         0.36829708690000    2.30123886750000   -0.37428683190000
H         0.52700732020000   -0.74074739470000   -2.26306726220000
H         2.97598704760000   -0.83185713600000   -2.48678374370000
H         5.13610334560000   -0.58463691210000   -1.65256747010000
H         3.37999192640000    0.47171350270000    1.57284607100000
H         0.94344769950000    0.56137173680000    1.77696990430000
H         0.21675684050000   -2.44290679400000   -0.01457418220000
H        -0.99409471320000   -4.55639525270000    0.14306829220000
H        -3.47151930520000   -4.55489461680000    0.27606000940000
H        -4.67700830250000   -2.43410453660000    0.28246513520000
H        -5.38858735780000   -0.76796463690000   -0.99083888560000
H        -4.17255787300000    0.04859169410000   -1.97371624610000
H        -5.32871208190000    0.99111051890000   -1.03270236690000
$end

$rem
BASIS = 6-31G*
GUI = 2
METHOD = B3LYP
PRINT_ORBITALS false
MOLDEN_FORMAT false
--------------------------------------------------------------
 ----------------------------------------------------------------
             Standard Nuclear Orientation (Angstroms)
    I     Atom           X                Y                Z
 ----------------------------------------------------------------
    1      C      -4.3921831933     0.1396450885     1.4619846874
    2      C      -3.6155951450     0.0777230917     0.1340232644
    3      C      -2.8125195178    -1.2085176742     0.1042402113
    4      C      -1.4173920759    -1.2147939542     0.0055705743
    5      N      -0.7054835068    -0.0283561767    -0.0976129893
    6      C      -1.3368177343     1.2073329554    -0.0920301960
    7      C      -2.7268097077     1.3023356197     0.0305253653
    8      C      -3.3031155050     2.5653159061     0.0385180494
    9      C      -2.5493431274     3.7178988402    -0.0804328597
   10      C      -1.1781551490     3.6153552541    -0.2282929281
   11      C      -0.5794786820     2.3732738288    -0.2383790640
   12      C       0.7062741403    -0.0802890887    -0.2162722911
   13      C       1.2948831288    -0.4738796213    -1.4137827404
   14      C       2.6687214104    -0.5230145212    -1.5244658139
   15      C       3.4911540804    -0.1793154158    -0.4478865277
   16      C       4.9303407435    -0.2522361837    -0.6382507240
   17      C       5.8930770047     0.0265726662     0.2286011938
   18      F       5.7707709435     0.4406425773     1.4836167364
   19      F       7.1873047239    -0.0788204810    -0.0656884267
   20      C       2.8900802835     0.2148429487     0.7498448417
   21      C       1.5152030307     0.2618822997     0.8624724029
   22      C      -0.7325209917    -2.4331255078     0.0390283680
   23      C      -1.4133213999    -3.6286397011     0.1314168420
   24      C      -2.7945035523    -3.6311202910     0.2012671880
   25      C      -3.4724773703    -2.4264858109     0.1951056988
   26      C      -4.5924943560     0.0796294133    -1.0560152525
   27      H      -3.6954666948     0.1342847936     2.2982339123
   28      H      -5.0563254923    -0.7140684557     1.5640973061
   29      H      -4.9904489533     1.0446775983     1.5200411305
   30      H      -4.3739735984     2.6587551044     0.1381533874
   31      H      -3.0299404365     4.6841689521    -0.0671698820
   32      H      -0.5706798785     4.5011197636    -0.3394954279
   33      H       0.4897252469     2.3031669703    -0.3669621806
   34      H       0.6664108177    -0.7412519121    -2.2502191330
   35      H       3.1169040849    -0.8275338357    -2.4587615296
   36      H       5.2713326840    -0.5745397855    -1.6116673948
   37      H       3.4932325408     0.4828514821     1.6013342571
   38      H       1.0552978970     0.5676792823     1.7903628915
   39      H       0.3459247258    -2.4407532843    -0.0011511344
   40      H      -0.8614387318    -4.5565525064     0.1521891187
   41      H      -3.3396311530    -4.5600726648     0.2699668312
   42      H      -4.5495802749    -2.4418183628     0.2658259513
   43      H      -5.2568164800    -0.7790541814    -1.0142921191
   44      H      -4.0364874720     0.0386148593    -1.9908955737
   45      H      -5.2003731792     0.9800796974    -1.0583960135
 ----------------------------------------------------------------
 Molecular Point Group                 C1    NOp =  1
 Largest Abelian Subgroup              C1    NOp =  1
 Nuclear Repulsion Energy =        2208.95113047 hartrees
 There are       91 alpha and       91 beta electrons
 Requested basis set is 6-31G(d)
 There are 142 shells and 428 basis functions

 Total QAlloc Memory Limit   4000 MB
 Mega-Array Size       188 MB
 MEM_STATIC part       192 MB
 A cutoff of  1.0D-08 yielded   4928 shell pairs
 There are     47675 function pairs
 Smallest overlap matrix eigenvalue = 3.01E-04

 Scale SEOQF with 1.000000e-02/1.000000e-01/1.000000e-01

 Standard Electronic Orientation quadrupole field applied
 Nucleus-field energy     =     0.0000000400 hartrees
 Guess from superposition of atomic densities
 Warning:  Energy on first SCF cycle will be non-variational
 SAD guess density has 182.000000 electrons

 -----------------------------------------------------------------------
  General SCF calculation program by
  Eric Jon Sundstrom, Paul Horn, Yuezhi Mao, Dmitri Zuev, Alec White,
  David Stuck, Shaama M.S., Shane Yost, Joonho Lee, David Small,
  Daniel Levine, Susi Lehtola, Hugh Burton, Evgeny Epifanovsky,
  Bang C. Huynh
 -----------------------------------------------------------------------
 Exchange:     0.2000 Hartree-Fock + 0.0800 Slater + 0.7200 B88
 Correlation:  0.1900 VWN1RPA + 0.8100 LYP
 Using SG-1 standard quadrature grid
 A restricted SCF calculation will be
 performed using DIIS
 SCF converges when DIIS error is below 1.0e-05
 ---------------------------------------
  Cycle       Energy         DIIS error
 ---------------------------------------
    1   -1148.9637623098      3.98e-02  
    2   -1141.8963264214      4.10e-03  
    3   -1141.6650039572      5.23e-03  
    4   -1142.2602768988      1.33e-03  
    5   -1142.2983108524      4.60e-04  
    6   -1142.3026409042      2.25e-04  
    7   -1142.3038528135      4.30e-05  
    8   -1142.3038854532      2.10e-05  
    9   -1142.3038960018      4.33e-06  Convergence criterion met
 ---------------------------------------
 SCF time:   CPU 162.15s  wall 163.00s 
 SCF   energy in the final basis set =    -1142.3038960018
 Total energy in the final basis set =    -1142.3038960018
 
 --------------------------------------------------------------
 
                    Orbital Energies (a.u.)
 --------------------------------------------------------------
 
 Alpha MOs
 -- Occupied --
-24.7509 -24.7401 -14.3657 -10.3638 -10.2297 -10.2231 -10.2231 -10.2157
-10.2096 -10.2003 -10.2003 -10.1982 -10.1980 -10.1974 -10.1819 -10.1819
-10.1780 -10.1779 -10.1772 -10.1771 -10.1743 -10.1742 -10.1713 -10.1712
-10.1677 -10.1676  -1.2919  -1.2308  -0.9820  -0.8779  -0.8537  -0.8528
 -0.8117  -0.8076  -0.7638  -0.7540  -0.7524  -0.7391  -0.7213  -0.7051
 -0.6843  -0.6545  -0.6336  -0.6307  -0.6219  -0.6149  -0.5890  -0.5802
 -0.5759  -0.5438  -0.5401  -0.5394  -0.5283  -0.5253  -0.4910  -0.4738
 -0.4676  -0.4621  -0.4574  -0.4544  -0.4486  -0.4469  -0.4384  -0.4363
 -0.4348  -0.4246  -0.4240  -0.4177  -0.4134  -0.4127  -0.3941  -0.3881
 -0.3838  -0.3810  -0.3761  -0.3678  -0.3610  -0.3563  -0.3546  -0.3454
 -0.3396  -0.3183  -0.3144  -0.3089  -0.3031  -0.2675  -0.2460  -0.2399
 -0.2355  -0.2300  -0.1780
 -- Virtual --
 -0.0385  -0.0145   0.0015   0.0037   0.0168   0.0434   0.0565   0.0793
  0.0917   0.1097   0.1127   0.1163   0.1342   0.1360   0.1470   0.1523
  0.1594   0.1602   0.1623   0.1672   0.1736   0.1751   0.1788   0.1829
  0.1885   0.1940   0.1964   0.1992   0.2027   0.2180   0.2237   0.2248
  0.2423   0.2487   0.2655   0.2664   0.2789   0.2932   0.3044   0.3062
  0.3164   0.3216   0.3226   0.3295   0.3483   0.3608   0.3768   0.3814
  0.4043   0.4097   0.4320   0.4422   0.4696   0.4705   0.4886   0.4929
  0.5019   0.5022   0.5058   0.5206   0.5226   0.5292   0.5347   0.5435
  0.5504   0.5554   0.5578   0.5616   0.5649   0.5709   0.5767   0.5794
  0.5820   0.5825   0.5885   0.5899   0.5985   0.6028   0.6100   0.6133
  0.6178   0.6186   0.6233   0.6269   0.6275   0.6298   0.6321   0.6426
  0.6468   0.6539   0.6655   0.6730   0.6767   0.7033   0.7143   0.7384
  0.7407   0.7684   0.7728   0.7871   0.7896   0.8024   0.8092   0.8106
  0.8148   0.8177   0.8244   0.8280   0.8372   0.8380   0.8484   0.8518
  0.8533   0.8573   0.8637   0.8759   0.8795   0.8820   0.8896   0.8987
  0.9081   0.9197   0.9276   0.9343   0.9351   0.9416   0.9592   0.9689
  0.9717   0.9765   0.9803   0.9956   0.9988   1.0100   1.0146   1.0168
  1.0484   1.0555   1.0589   1.0721   1.0756   1.0935   1.1144   1.1256
  1.1324   1.1363   1.1521   1.1530   1.1607   1.1651   1.1735   1.1844
  1.1972   1.2077   1.2166   1.2301   1.2450   1.2488   1.2743   1.2807
  1.2845   1.2984   1.3125   1.3307   1.3351   1.3421   1.3627   1.3701
  1.3977   1.4071   1.4320   1.4395   1.4437   1.4499   1.4519   1.4566
  1.4583   1.4690   1.4801   1.4810   1.4899   1.4987   1.5009   1.5163
  1.5211   1.5407   1.5444   1.5557   1.5605   1.6173   1.6206   1.6488
  1.6594   1.6897   1.7009   1.7168   1.7323   1.7498   1.7691   1.7757
  1.7765   1.8094   1.8148   1.8261   1.8309   1.8396   1.8524   1.8553
  1.8691   1.8810   1.8821   1.8845   1.8900   1.8992   1.9020   1.9191
  1.9219   1.9369   1.9463   1.9579   1.9598   1.9645   1.9702   1.9789
  1.9913   2.0061   2.0118   2.0260   2.0291   2.0521   2.0617   2.0684
  2.0828   2.0877   2.0952   2.1106   2.1280   2.1418   2.1542   2.1561
  2.1694   2.1741   2.1861   2.2042   2.2140   2.2148   2.2322   2.2395
  2.2473   2.2627   2.2727   2.2763   2.2796   2.2811   2.3006   2.3070
  2.3176   2.3189   2.3289   2.3328   2.3486   2.3652   2.3673   2.3717
  2.4144   2.4516   2.4662   2.4736   2.4786   2.5154   2.5198   2.5416
  2.5605   2.6165   2.6227   2.6314   2.6394   2.6441   2.6591   2.6666
  2.6821   2.6836   2.6858   2.7070   2.7351   2.7388   2.7510   2.7553
  2.7668   2.7869   2.7890   2.8035   2.8368   2.8441   2.8788   2.8867
  2.9132   2.9455   2.9500   2.9801   3.0169   3.0332   3.0656   3.0861
  3.1490   3.1859   3.3029   3.3624   3.4538   3.5116   3.5187   4.0710
  4.1111   4.1185   4.1206   4.1290   4.1536   4.1582   4.2079   4.2244
  4.2318   4.2647   4.3157   4.3204   4.3397   4.3598   4.4009   4.4317
  4.4487   4.4888   4.5642   4.7166   4.7250   4.7361   4.8143   4.9151
  5.2869
 --------------------------------------------------------------
 
          Ground-State Mulliken Net Atomic Charges

     Atom                 Charge (a.u.)
  ----------------------------------------
      1 C                    -0.432799
      2 C                    -0.045586
      3 C                     0.126890
      4 C                     0.305816
      5 N                    -0.732039
      6 C                     0.306049
      7 C                     0.126831
      8 C                    -0.213204
      9 C                    -0.134020
     10 C                    -0.136019
     11 C                    -0.191625
     12 C                     0.189685
     13 C                    -0.125971
     14 C                    -0.207240
     15 C                     0.206661
     16 C                    -0.300966
     17 C                     0.547186
     18 F                    -0.232594
     19 F                    -0.245668
     20 C                    -0.208282
     21 C                    -0.125875
     22 C                    -0.191689
     23 C                    -0.136065
     24 C                    -0.134122
     25 C                    -0.213352
     26 C                    -0.432309
     27 H                     0.151503
     28 H                     0.142258
     29 H                     0.142176
     30 H                     0.123346
     31 H                     0.118269
     32 H                     0.123490
     33 H                     0.143997
     34 H                     0.148438
     35 H                     0.135459
     36 H                     0.162323
     37 H                     0.145646
     38 H                     0.149089
     39 H                     0.144002
     40 H                     0.123297
     41 H                     0.118267
     42 H                     0.123410
     43 H                     0.141987
     44 H                     0.151098
     45 H                     0.142253
  ----------------------------------------
  Sum of atomic charges =     0.000000

 -----------------------------------------------------------------
                    Cartesian Multipole Moments
 -----------------------------------------------------------------
    Charge (ESU x 10^10)
                 0.0000
    Dipole Moment (Debye)
         X       0.4948      Y      -0.2305      Z      -0.6979
       Tot       0.8861
    Quadrupole Moments (Debye-Ang)
        XX    -144.1440     XY      -1.2875     YY    -145.1512
        XZ      -4.3868     YZ       1.8107     ZZ    -147.5292
    Octopole Moments (Debye-Ang^2)
       XXX      17.3254    XXY      -4.2110    XYY      25.2392
       YYY       4.6608    XXZ     -10.7515    XYZ       5.0806
       YYZ       4.3586    XZZ      55.9195    YZZ      -2.4085
       ZZZ       4.7642
    Hexadecapole Moments (Debye-Ang^3)
      XXXX  -10278.3834   XXXY     -11.4089   XXYY   -2141.7902
      XYYY      21.7757   YYYY   -2998.8365   XXXZ     -53.3908
      XXYZ      14.7655   XYYZ      14.3491   YYYZ     -13.4363
      XXZZ   -1785.7917   XYZZ      -7.0086   YYZZ    -700.8107
      XZZZ      47.1495   YZZZ      27.4537   ZZZZ    -646.8514
 -----------------------------------------------------------------
Archival summary:
1\1\nia2015.scinet.local\SP\ProcedureUnspecified\6-31G*\212319\rhickman\TueFeb814:55:392022TueFeb814:55:392022\0\\#,ProcedureUnspecified,6-31G*,\\0,1\N\C,1,1.38748\C,1,1.38764,2,121.852\C,3,1.398,1,119.722,2,-178.111,0\H,4,1.07919,3,119.671,1,0.756137,0\C,4,1.37887,3,121.017,1,-179.591,0\H,6,1.0798,4,119.598,3,179.772,0\C,6,1.38294,4,119.872,3,-0.430247,0\H,8,1.07927,6,120.611,4,179.77,0\C,8,1.38231,6,119.212,4,-0.817229,0\H,10,1.07953,8,118.469,6,-179.075,0\C,10,1.38828,8,122.12,6,0.781565,0\C,2,1.39803,1,119.71,3,-177.927,0\H,13,1.07922,2,119.656,1,0.890112,0\C,13,1.37887,2,121.018,1,-179.53,0\H,15,1.07983,13,119.604,2,179.794,0\C,15,1.38295,13,119.871,2,-0.424999,0\H,17,1.07928,15,120.611,13,179.76,0\C,17,1.38233,15,119.212,13,-0.856093,0\H,19,1.07953,17,118.469,15,-179.048,0\C,19,1.38825,17,122.12,15,0.811088,0\C,1,1.41769,2,119.068,3,-179.8,0\C,22,1.39109,1,120.342,2,-105.817,0\H,23,1.07982,22,119.232,1,-0.027022,0\C,23,1.38028,22,120.502,1,-179.881,0\H,25,1.07734,23,118.992,22,-179.864,0\C,22,1.39119,1,120.248,2,74.2019,0\H,27,1.07986,22,119.377,1,-0.138509,0\C,27,1.37917,22,120.041,1,-179.993,0\H,29,1.08005,27,119.527,22,-179.858,0\C,25,1.39686,23,120.544,22,-0.118793,0\C,31,1.45355,25,123.539,23,-179.995,0\H,32,1.0806,31,116.447,25,179.826,0\C,32,1.32515,31,128.543,25,-0.222197,0\F,34,1.32721,32,128.117,31,0.0169943,0\F,34,1.33144,32,123.022,31,-179.964,0\C,21,1.51665,19,119.409,17,-178.643,0\C,37,1.53961,21,108.55,19,59.6599,0\H,38,1.08643,37,110.966,21,-59.0937,0\H,38,1.08645,37,110.938,21,-179.453,0\H,38,1.08846,37,109.853,21,60.7238,0\C,37,1.53965,21,108.774,19,-60.3523,0\H,42,1.08643,37,110.961,21,178.959,0\H,42,1.08646,37,110.935,21,58.5983,0\H,42,1.0885,37,109.858,21,-61.2276,0\\\@

 Total job time:  163.08s(wall), 162.61s(cpu) 
 Tue Feb  8 14:55:39 2022

        *************************************************************
        *                                                           *
        *  Thank you very much for using Q-Chem.  Have a nice day.  *
        *                                                           *
        *************************************************************


