
Running Job 1 of 1 fragments/C134/conf-2/spe_input.inp
qchem fragments/C134/conf-2/spe_input.inp_73383.0 /gpfs/fs0/scratch/a/aspuru/rhickman/descriptor_computation/qchem73383/ 0
/scinet/niagara/software/commercial/qc52/exe/qcprog.exe_s fragments/C134/conf-2/spe_input.inp_73383.0 /gpfs/fs0/scratch/a/aspuru/rhickman/descriptor_computation/qchem73383/
                  Welcome to Q-Chem
     A Quantum Leap Into The Future Of Chemistry


 Q-Chem 5.2, Q-Chem, Inc., Pleasanton, CA (2019)

 License issued to: SRG Alan Aspuru-Guzik, University of Toronto

 Yihan Shao,  Zhengting Gan,  E. Epifanovsky,  A. T. B. Gilbert,  M. Wormit,  
 J. Kussmann,  A. W. Lange,  A. Behn,  Jia Deng,  Xintian Feng,  D. Ghosh,  
 M. Goldey,  P. R. Horn,  L. D. Jacobson,  I. Kaliman,  T. Kus,  A. Landau,  
 Jie Liu,  E. I. Proynov,  R. M. Richard,  R. P. Steele,  E. J. Sundstrom,  
 H. L. Woodcock III,  P. M. Zimmerman,  D. Zuev,  B. Albrecht,  E. Alguire,  
 S. A. Baeppler,  D. Barton,  Z. Benda,  Y. A. Bernard,  E. J. Berquist,  
 K. B. Bravaya,  H. Burton,  D. Casanova,  Chun-Min Chang,  Yunqing Chen,  
 A. Chien,  K. D. Closser,  M. P. Coons,  S. Coriani,  S. Dasgupta,  
 A. L. Dempwolff,  M. Diedenhofen,  Hainam Do,  R. G. Edgar,  Po-Tung Fang,  
 S. Faraji,  S. Fatehi,  Qingguo Feng,  K. D. Fenk,  J. Fosso-Tande,  
 J. Gayvert,  Qinghui Ge,  A. Ghysels,  G. Gidofalvi,  J. Gomes,  
 J. Gonthier,  A. Gunina,  D. Hait,  M. W. D. Hanson-Heine,  
 P. H. P. Harbach,  A. W. Hauser,  M. F. Herbst,  J. E. Herr,  
 E. G. Hohenstein,  Z. C. Holden,  Kerwin Hui,  B. C. Huynh,  T.-C. Jagau,  
 Hyunjun Ji,  B. Kaduk,  K. Khistyaev,  Jaehoon Kim,  P. Klunzinger,  K. Koh,  
 D. Kosenkov,  L. Koulias,  T. Kowalczyk,  C. M. Krauter,  A. Kunitsa,  
 Ka Un Lao,  A. Laurent,  K. V. Lawler,  Joonho Lee,  D. Lefrancois,  
 S. Lehtola,  D. S. Levine,  Yi-Pei Li,  You-Sheng Lin,  Fenglai Liu,  
 E. Livshits,  A. Luenser,  P. Manohar,  E. Mansoor,  S. F. Manzer,  
 Shan-Ping Mao,  Yuezhi Mao,  N. Mardirossian,  A. V. Marenich,  
 T. Markovich,  L. A. Martinez-Martinez,  S. A. Maurer,  N. J. Mayhall,  
 S. C. McKenzie,  J.-M. Mewes,  P. Morgante,  A. F. Morrison,  
 J. W. Mullinax,  K. Nanda,  T. S. Nguyen-Beck,  R. Olivares-Amaya,  
 J. A. Parkhill,  Zheng Pei,  T. M. Perrine,  F. Plasser,  P. Pokhilko,  
 S. Prager,  A. Prociuk,  E. Ramos,  D. R. Rehn,  F. Rob,  M. Scheurer,  
 M. Schneider,  N. Sergueev,  S. M. Sharada,  S. Sharma,  D. W. Small,  
 T. Stauch,  T. Stein,  Yu-Chuan Su,  A. J. W. Thom,  A. Tkatchenko,  
 T. Tsuchimochi,  N. M. Tubman,  L. Vogt,  M. L. Vidal,  O. Vydrov,  
 M. A. Watson,  J. Wenzel,  M. de Wergifosse,  T. A. Wesolowski,  A. White,  
 J. Witte,  A. Yamada,  Jun Yang,  K. Yao,  S. Yeganeh,  S. R. Yost,  
 Zhi-Qiang You,  A. Zech,  Igor Ying Zhang,  Xing Zhang,  Yan Zhao,  
 Ying Zhu,  B. R. Brooks,  G. K. L. Chan,  C. J. Cramer,  M. S. Gordon,  
 W. J. Hehre,  A. Klamt,  M. W. Schmidt,  C. D. Sherrill,  D. G. Truhlar,  
 A. Aspuru-Guzik,  R. Baer,  A. T. Bell,  N. A. Besley,  Jeng-Da Chai,  
 A. E. DePrince, III,  R. A. DiStasio Jr.,  A. Dreuw,  B. D. Dunietz,  
 T. R. Furlani,  Chao-Ping Hsu,  Yousung Jung,  Jing Kong,  D. S. Lambrecht,  
 WanZhen Liang,  C. Ochsenfeld,  V. A. Rassolov,  L. V. Slipchenko,  
 J. E. Subotnik,  T. Van Voorhis,  J. M. Herbert,  A. I. Krylov,  
 P. M. W. Gill,  M. Head-Gordon

 Contributors to earlier versions of Q-Chem not listed above: 
 R. D. Adamson,  B. Austin,  J. Baker,  G. J. O. Beran,  K. Brandhorst,  
 S. T. Brown,  E. F. C. Byrd,  A. K. Chakraborty,  C.-L. Cheng,  
 Siu Hung Chien,  D. M. Chipman,  D. L. Crittenden,  H. Dachsel,  
 R. J. Doerksen,  A. D. Dutoi,  L. Fusti-Molnar,  W. A. Goddard III,  
 A. Golubeva-Zadorozhnaya,  S. R. Gwaltney,  G. Hawkins,  A. Heyden,  
 S. Hirata,  G. Kedziora,  F. J. Keil,  C. Kelley,  Jihan Kim,  R. A. King,  
 R. Z. Khaliullin,  P. P. Korambath,  W. Kurlancheek,  A. M. Lee,  M. S. Lee,  
 S. V. Levchenko,  Ching Yeh Lin,  D. Liotard,  R. C. Lochan,  I. Lotan,  
 P. E. Maslen,  N. Nair,  D. P. O'Neill,  D. Neuhauser,  E. Neuscamman,  
 C. M. Oana,  R. Olson,  B. Peters,  R. Peverati,  P. A. Pieniazek,  
 Y. M. Rhee,  J. Ritchie,  M. A. Rohrdanz,  E. Rosta,  N. J. Russ,  
 H. F. Schaefer III,  N. E. Schultz,  N. Shenvi,  A. C. Simmonett,  A. Sodt,  
 D. Stuck,  K. S. Thanthiriwatte,  V. Vanovschi,  Tao Wang,  A. Warshel,  
 C. F. Williams,  Q. Wu,  X. Xu,  W. Zhang

 Please cite Q-Chem as follows:
 Y. Shao et al., Mol. Phys. 113, 184-215 (2015)
 DOI: 10.1080/00268976.2014.952696

 Q-Chem 5.2.1 for Intel X86 EM64T Linux

 Parts of Q-Chem use Armadillo 8.300.2 (Tropical Shenanigans).
 http://arma.sourceforge.net/

 Q-Chem begins on Mon Feb  7 14:07:44 2022  

Host: 
0

     Scratch files written to /gpfs/fs0/scratch/a/aspuru/rhickman/descriptor_computation/qchem73383//
 Jul1719 |scratch|qcdevops|jenkins|workspace|build_RNUM -1
Processing $rem in /scinet/niagara/software/commercial/qc52/config/preferences:
	 MEM_TOTAL  4000 
NAlpha2: 86
NElect   86
Mult     1

Checking the input file for inconsistencies... 	...done.

--------------------------------------------------------------
User input:
--------------------------------------------------------------
$molecule
0 1
C        -3.24105901750000    1.82697703700000   -0.37850007220000
C        -2.04566838040000    1.96136090320000    0.18086788340000
C        -0.97587847410000    0.98410893030000    0.12929937780000
C         0.40326672600000    1.29449545990000    0.12553268040000
C         1.07964371360000    0.09824658750000    0.03399230050000
C         2.51373524360000   -0.22826567410000   -0.02714277810000
O         2.94317957340000   -1.34335676320000   -0.12321518600000
O         3.34265320080000    0.83676668110000    0.03255416590000
O         0.19675638390000   -0.91976353120000   -0.00119525140000
C        -1.04136632330000   -0.40547879300000    0.05816106910000
C        -2.17232815510000   -1.29640828830000    0.11474843390000
C        -2.08136578400000   -2.60789770450000   -0.09103284950000
H        -3.98232491180000    2.60392647810000   -0.30574236660000
H        -3.51396358800000    0.95454845940000   -0.94661486140000
H        -1.79138654070000    2.88028375990000    0.69445121120000
H         0.81310412480000    2.28561314690000    0.16869383920000
H         2.86997838750000    1.67473931340000    0.10893011350000
H        -3.11438101260000   -0.82792975110000    0.35873846190000
H        -1.14062106480000   -3.06967602090000   -0.33782349600000
H        -2.94139789000000   -3.24995068700000   -0.02148665700000
$end

$rem
BASIS = 6-31G*
GUI = 2
METHOD = B3LYP
PRINT_ORBITALS false
MOLDEN_FORMAT false
--------------------------------------------------------------
 ----------------------------------------------------------------
             Standard Nuclear Orientation (Angstroms)
    I     Atom           X                Y                Z
 ----------------------------------------------------------------
    1      C       3.3129051539     1.5269486977     0.3737446715
    2      C       2.1271450480     1.7733271212    -0.1677171943
    3      C       0.9793288030     0.8886728286    -0.1225970962
    4      C      -0.3685856789     1.3138449609    -0.0951986256
    5      C      -1.1424624882     0.1770674701    -0.0195120643
    6      C      -2.5982464867    -0.0288555990     0.0529786980
    7      O      -3.1191886475    -1.1056544003     0.1317447025
    8      O      -3.3349361655     1.1031728514     0.0253648025
    9      O      -0.3482960433    -0.9121345176    -0.0161223231
   10      C       0.9280931233    -0.5026972784    -0.0805555866
   11      C       1.9791666464    -1.4842139741    -0.1694464490
   12      C       1.7800922513    -2.7874876586     0.0107525150
   13      H       4.1162577043     2.2401491606     0.3074949671
   14      H       3.5173408394     0.6227396876     0.9205307888
   15      H       1.9457768465     2.7211255422    -0.6592759740
   16      H      -0.6937723192     2.3366249469    -0.1130479330
   17      H      -2.7940909576     1.8998418199    -0.0398878814
   18      H       2.9546996780    -1.0915634558    -0.4156734472
   19      H       0.8064582377    -3.1736330106     0.2598991348
   20      H       2.5820785879    -3.4979955688    -0.0826303209
 ----------------------------------------------------------------
 Molecular Point Group                 C1    NOp =  1
 Largest Abelian Subgroup              C1    NOp =  1
 Nuclear Repulsion Energy =         652.87191445 hartrees
 There are       43 alpha and       43 beta electrons
 Requested basis set is 6-31G(d)
 There are 64 shells and 196 basis functions

 Total QAlloc Memory Limit   4000 MB
 Mega-Array Size       188 MB
 MEM_STATIC part       192 MB
 A cutoff of  1.0D-08 yielded   1438 shell pairs
 There are     14645 function pairs
 Smallest overlap matrix eigenvalue = 5.25E-04

 Scale SEOQF with 1.000000e-01/1.000000e-01/1.000000e+00

 Standard Electronic Orientation quadrupole field applied
 Nucleus-field energy     =     0.0000000246 hartrees
 Guess from superposition of atomic densities
 Warning:  Energy on first SCF cycle will be non-variational
 SAD guess density has 86.000000 electrons

 -----------------------------------------------------------------------
  General SCF calculation program by
  Eric Jon Sundstrom, Paul Horn, Yuezhi Mao, Dmitri Zuev, Alec White,
  David Stuck, Shaama M.S., Shane Yost, Joonho Lee, David Small,
  Daniel Levine, Susi Lehtola, Hugh Burton, Evgeny Epifanovsky,
  Bang C. Huynh
 -----------------------------------------------------------------------
 Exchange:     0.2000 Hartree-Fock + 0.0800 Slater + 0.7200 B88
 Correlation:  0.1900 VWN1RPA + 0.8100 LYP
 Using SG-1 standard quadrature grid
 A restricted SCF calculation will be
 performed using DIIS
 SCF converges when DIIS error is below 1.0e-05
 ---------------------------------------
  Cycle       Energy         DIIS error
 ---------------------------------------
    1    -576.2086537513      5.93e-02  
    2    -573.1481865994      7.41e-03  
    3    -572.7936160320      1.23e-02  
    4    -573.3534342400      2.80e-03  
    5    -573.3836060337      7.42e-04  
    6    -573.3851145000      3.53e-04  
    7    -573.3856281147      9.58e-05  
    8    -573.3856615935      3.45e-05  
    9    -573.3856661879      8.51e-06  Convergence criterion met
 ---------------------------------------
 SCF time:   CPU 23.57s  wall 24.00s 
 SCF   energy in the final basis set =     -573.3856661879
 Total energy in the final basis set =     -573.3856661879
 
 --------------------------------------------------------------
 
                    Orbital Energies (a.u.)
 --------------------------------------------------------------
 
 Alpha MOs
 -- Occupied --
-19.2377 -19.1967 -19.1312 -10.3238 -10.2658 -10.2636 -10.2176 -10.2140
-10.2110 -10.2090 -10.1963 -10.1963  -1.1466  -1.1032  -1.0214  -0.8485
 -0.8236  -0.7793  -0.7497  -0.6625  -0.6416  -0.6245  -0.6078  -0.5734
 -0.5366  -0.4929  -0.4892  -0.4853  -0.4679  -0.4457  -0.4375  -0.4329
 -0.4195  -0.4015  -0.3898  -0.3794  -0.3702  -0.3345  -0.3194  -0.3110
 -0.2767  -0.2725  -0.2215
 -- Virtual --
 -0.0641  -0.0279   0.0249   0.0480   0.0921   0.0966   0.1040   0.1160
  0.1345   0.1521   0.1577   0.1750   0.1821   0.2115   0.2228   0.2474
  0.2709   0.3170   0.3199   0.3342   0.3396   0.3762   0.4123   0.4262
  0.4369   0.4910   0.4964   0.5157   0.5305   0.5411   0.5556   0.5658
  0.5756   0.5885   0.5901   0.6063   0.6151   0.6214   0.6338   0.6656
  0.6684   0.6809   0.6837   0.7040   0.7209   0.7505   0.7721   0.7985
  0.8387   0.8463   0.8537   0.8604   0.8886   0.9037   0.9083   0.9155
  0.9275   0.9399   0.9556   0.9688   0.9832   0.9897   1.0241   1.0315
  1.0544   1.0622   1.1089   1.1179   1.1469   1.1594   1.1759   1.2083
  1.2577   1.2699   1.2867   1.3165   1.3521   1.3612   1.3752   1.4021
  1.4392   1.4484   1.4688   1.5026   1.5167   1.5577   1.5887   1.6486
  1.6575   1.6670   1.6899   1.7585   1.7798   1.7878   1.8020   1.8388
  1.8529   1.8919   1.8950   1.8984   1.9170   1.9518   1.9655   1.9807
  2.0180   2.0478   2.0780   2.0937   2.1356   2.1491   2.1645   2.1854
  2.1985   2.2222   2.2685   2.2750   2.3035   2.3332   2.3817   2.4084
  2.4525   2.4810   2.4994   2.5297   2.5828   2.6008   2.6670   2.6753
  2.6888   2.7253   2.7503   2.7742   2.8057   2.8193   2.9072   2.9549
  2.9914   3.1125   3.1718   3.2737   3.3413   3.8556   4.0119   4.0857
  4.1029   4.1209   4.1939   4.2228   4.3007   4.4115   4.4295   4.6839
  4.8404
 --------------------------------------------------------------
 
          Ground-State Mulliken Net Atomic Charges

     Atom                 Charge (a.u.)
  ----------------------------------------
      1 C                    -0.347389
      2 C                    -0.111657
      3 C                     0.060862
      4 C                    -0.249526
      5 C                     0.258500
      6 C                     0.549770
      7 O                    -0.442796
      8 O                    -0.579611
      9 O                    -0.456349
     10 C                     0.293265
     11 C                    -0.120307
     12 C                    -0.344047
     13 H                     0.150643
     14 H                     0.154217
     15 H                     0.138652
     16 H                     0.146649
     17 H                     0.416109
     18 H                     0.152480
     19 H                     0.176758
     20 H                     0.153776
  ----------------------------------------
  Sum of atomic charges =     0.000000

 -----------------------------------------------------------------
                    Cartesian Multipole Moments
 -----------------------------------------------------------------
    Charge (ESU x 10^10)
                -0.0000
    Dipole Moment (Debye)
         X       4.2951      Y       3.2038      Z      -0.3251
       Tot       5.3683
    Quadrupole Moments (Debye-Ang)
        XX     -77.1233     XY      -8.7563     YY     -59.9434
        XZ       0.9178     YZ      -1.1614     ZZ     -69.9543
    Octopole Moments (Debye-Ang^2)
       XXX      58.8231    XXY      17.6660    XYY      -0.7770
       YYY       7.8893    XXZ      -0.9167    XYZ      -0.8132
       YYZ      -2.9235    XZZ     -14.3243    YZZ      -1.2932
       ZZZ       1.0214
    Hexadecapole Moments (Debye-Ang^3)
      XXXX   -2148.3947   XXXY     -35.6557   XXYY    -445.8420
      XYYY     -54.7672   YYYY    -816.3713   XXXZ      19.2170
      XXYZ       3.9178   XYYZ      -5.2984   YYYZ     -14.7781
      XXZZ    -350.7389   XYZZ       0.7451   YYZZ    -177.4205
      XZZZ      -2.0455   YZZZ      -2.3830   ZZZZ     -81.4751
 -----------------------------------------------------------------
Archival summary:
1\1\nia1977.scinet.local\SP\ProcedureUnspecified\6-31G*\398\rhickman\MonFeb714:08:082022MonFeb714:08:082022\0\\#,ProcedureUnspecified,6-31G*,\\0,1\O\C,1,1.342\C,1,1.34799,2,108.282\C,3,1.37727,1,109.635,2,0.347349,0\H,4,1.07338,3,128.109,1,-179.711,0\C,2,1.39295,1,109.949,3,0.219692,0\C,2,1.44084,1,119.272,3,-176.424,0\H,7,1.08003,2,115.17,1,168.27,0\C,7,1.33065,2,123.347,1,-10.5435,0\H,9,1.07551,7,121.582,2,178.695,0\H,9,1.07664,7,121.192,2,-1.50219,0\C,6,1.44987,2,129.757,1,178.581,0\H,12,1.08298,6,114.553,2,151.752,0\C,12,1.32662,6,125.562,2,-30.8504,0\H,14,1.07627,12,122.22,6,-0.893106,0\H,14,1.0763,12,121.263,6,-179.311,0\C,3,1.47206,1,118,2,-179.672,0\O,17,1.19878,3,123.962,1,0.976981,0\O,17,1.35091,3,114.902,1,-179.061,0\H,19,0.965118,17,112.799,3,0.0555806,0\\\@

 Total job time:  23.80s(wall), 23.71s(cpu) 
 Mon Feb  7 14:08:08 2022

        *************************************************************
        *                                                           *
        *  Thank you very much for using Q-Chem.  Have a nice day.  *
        *                                                           *
        *************************************************************


