
Running Job 1 of 1 fragments/A021/conf-0/spe_input.inp
qchem fragments/A021/conf-0/spe_input.inp_156568.0 /gpfs/fs0/scratch/a/aspuru/rhickman/descriptor_computation/qchem156568/ 0
/scinet/niagara/software/commercial/qc52/exe/qcprog.exe_s fragments/A021/conf-0/spe_input.inp_156568.0 /gpfs/fs0/scratch/a/aspuru/rhickman/descriptor_computation/qchem156568/
                  Welcome to Q-Chem
     A Quantum Leap Into The Future Of Chemistry


 Q-Chem 5.2, Q-Chem, Inc., Pleasanton, CA (2019)

 License issued to: SRG Alan Aspuru-Guzik, University of Toronto

 Yihan Shao,  Zhengting Gan,  E. Epifanovsky,  A. T. B. Gilbert,  M. Wormit,  
 J. Kussmann,  A. W. Lange,  A. Behn,  Jia Deng,  Xintian Feng,  D. Ghosh,  
 M. Goldey,  P. R. Horn,  L. D. Jacobson,  I. Kaliman,  T. Kus,  A. Landau,  
 Jie Liu,  E. I. Proynov,  R. M. Richard,  R. P. Steele,  E. J. Sundstrom,  
 H. L. Woodcock III,  P. M. Zimmerman,  D. Zuev,  B. Albrecht,  E. Alguire,  
 S. A. Baeppler,  D. Barton,  Z. Benda,  Y. A. Bernard,  E. J. Berquist,  
 K. B. Bravaya,  H. Burton,  D. Casanova,  Chun-Min Chang,  Yunqing Chen,  
 A. Chien,  K. D. Closser,  M. P. Coons,  S. Coriani,  S. Dasgupta,  
 A. L. Dempwolff,  M. Diedenhofen,  Hainam Do,  R. G. Edgar,  Po-Tung Fang,  
 S. Faraji,  S. Fatehi,  Qingguo Feng,  K. D. Fenk,  J. Fosso-Tande,  
 J. Gayvert,  Qinghui Ge,  A. Ghysels,  G. Gidofalvi,  J. Gomes,  
 J. Gonthier,  A. Gunina,  D. Hait,  M. W. D. Hanson-Heine,  
 P. H. P. Harbach,  A. W. Hauser,  M. F. Herbst,  J. E. Herr,  
 E. G. Hohenstein,  Z. C. Holden,  Kerwin Hui,  B. C. Huynh,  T.-C. Jagau,  
 Hyunjun Ji,  B. Kaduk,  K. Khistyaev,  Jaehoon Kim,  P. Klunzinger,  K. Koh,  
 D. Kosenkov,  L. Koulias,  T. Kowalczyk,  C. M. Krauter,  A. Kunitsa,  
 Ka Un Lao,  A. Laurent,  K. V. Lawler,  Joonho Lee,  D. Lefrancois,  
 S. Lehtola,  D. S. Levine,  Yi-Pei Li,  You-Sheng Lin,  Fenglai Liu,  
 E. Livshits,  A. Luenser,  P. Manohar,  E. Mansoor,  S. F. Manzer,  
 Shan-Ping Mao,  Yuezhi Mao,  N. Mardirossian,  A. V. Marenich,  
 T. Markovich,  L. A. Martinez-Martinez,  S. A. Maurer,  N. J. Mayhall,  
 S. C. McKenzie,  J.-M. Mewes,  P. Morgante,  A. F. Morrison,  
 J. W. Mullinax,  K. Nanda,  T. S. Nguyen-Beck,  R. Olivares-Amaya,  
 J. A. Parkhill,  Zheng Pei,  T. M. Perrine,  F. Plasser,  P. Pokhilko,  
 S. Prager,  A. Prociuk,  E. Ramos,  D. R. Rehn,  F. Rob,  M. Scheurer,  
 M. Schneider,  N. Sergueev,  S. M. Sharada,  S. Sharma,  D. W. Small,  
 T. Stauch,  T. Stein,  Yu-Chuan Su,  A. J. W. Thom,  A. Tkatchenko,  
 T. Tsuchimochi,  N. M. Tubman,  L. Vogt,  M. L. Vidal,  O. Vydrov,  
 M. A. Watson,  J. Wenzel,  M. de Wergifosse,  T. A. Wesolowski,  A. White,  
 J. Witte,  A. Yamada,  Jun Yang,  K. Yao,  S. Yeganeh,  S. R. Yost,  
 Zhi-Qiang You,  A. Zech,  Igor Ying Zhang,  Xing Zhang,  Yan Zhao,  
 Ying Zhu,  B. R. Brooks,  G. K. L. Chan,  C. J. Cramer,  M. S. Gordon,  
 W. J. Hehre,  A. Klamt,  M. W. Schmidt,  C. D. Sherrill,  D. G. Truhlar,  
 A. Aspuru-Guzik,  R. Baer,  A. T. Bell,  N. A. Besley,  Jeng-Da Chai,  
 A. E. DePrince, III,  R. A. DiStasio Jr.,  A. Dreuw,  B. D. Dunietz,  
 T. R. Furlani,  Chao-Ping Hsu,  Yousung Jung,  Jing Kong,  D. S. Lambrecht,  
 WanZhen Liang,  C. Ochsenfeld,  V. A. Rassolov,  L. V. Slipchenko,  
 J. E. Subotnik,  T. Van Voorhis,  J. M. Herbert,  A. I. Krylov,  
 P. M. W. Gill,  M. Head-Gordon

 Contributors to earlier versions of Q-Chem not listed above: 
 R. D. Adamson,  B. Austin,  J. Baker,  G. J. O. Beran,  K. Brandhorst,  
 S. T. Brown,  E. F. C. Byrd,  A. K. Chakraborty,  C.-L. Cheng,  
 Siu Hung Chien,  D. M. Chipman,  D. L. Crittenden,  H. Dachsel,  
 R. J. Doerksen,  A. D. Dutoi,  L. Fusti-Molnar,  W. A. Goddard III,  
 A. Golubeva-Zadorozhnaya,  S. R. Gwaltney,  G. Hawkins,  A. Heyden,  
 S. Hirata,  G. Kedziora,  F. J. Keil,  C. Kelley,  Jihan Kim,  R. A. King,  
 R. Z. Khaliullin,  P. P. Korambath,  W. Kurlancheek,  A. M. Lee,  M. S. Lee,  
 S. V. Levchenko,  Ching Yeh Lin,  D. Liotard,  R. C. Lochan,  I. Lotan,  
 P. E. Maslen,  N. Nair,  D. P. O'Neill,  D. Neuhauser,  E. Neuscamman,  
 C. M. Oana,  R. Olson,  B. Peters,  R. Peverati,  P. A. Pieniazek,  
 Y. M. Rhee,  J. Ritchie,  M. A. Rohrdanz,  E. Rosta,  N. J. Russ,  
 H. F. Schaefer III,  N. E. Schultz,  N. Shenvi,  A. C. Simmonett,  A. Sodt,  
 D. Stuck,  K. S. Thanthiriwatte,  V. Vanovschi,  Tao Wang,  A. Warshel,  
 C. F. Williams,  Q. Wu,  X. Xu,  W. Zhang

 Please cite Q-Chem as follows:
 Y. Shao et al., Mol. Phys. 113, 184-215 (2015)
 DOI: 10.1080/00268976.2014.952696

 Q-Chem 5.2.1 for Intel X86 EM64T Linux

 Parts of Q-Chem use Armadillo 8.300.2 (Tropical Shenanigans).
 http://arma.sourceforge.net/

 Q-Chem begins on Mon Feb  7 17:56:46 2022  

Host: 
0

     Scratch files written to /gpfs/fs0/scratch/a/aspuru/rhickman/descriptor_computation/qchem156568//
 Jul1719 |scratch|qcdevops|jenkins|workspace|build_RNUM -1
Processing $rem in /scinet/niagara/software/commercial/qc52/config/preferences:
	 MEM_TOTAL  4000 
NAlpha2: 174
NElect   174
Mult     1

Checking the input file for inconsistencies... 	...done.

--------------------------------------------------------------
User input:
--------------------------------------------------------------
$molecule
0 1
F         6.85417923020000   -0.04128072510000    0.18217630350000
C         5.56362105870000    0.00783189860000   -0.13695702990000
F         5.45116139740000    0.18366859260000   -1.44702171990000
C         4.59342048010000   -0.10694336450000    0.75836052250000
C         3.15563388020000   -0.07112341210000    0.54447030920000
C         2.32347032570000   -0.21143679730000    1.65785868080000
C         0.94971910340000   -0.18637006610000    1.52657710400000
C         0.37667809280000   -0.02009868400000    0.27240396210000
N        -1.04150719140000   -0.00069866020000    0.14795780480000
C        -1.66605450970000    1.23823298320000    0.01935836450000
C        -3.05573270030000    1.38193189140000   -0.01698576170000
S        -4.16379690160000    0.01610316970000    0.19143144870000
C        -3.07267302320000   -1.35810569030000   -0.04488429080000
C        -1.68197720330000   -1.22677186390000   -0.02065812780000
C        -0.92489809300000   -2.38944971280000   -0.17492389490000
C        -1.52365095760000   -3.62605071540000   -0.33833232280000
C        -2.90057929260000   -3.73715634420000   -0.36838604790000
C        -3.66859373850000   -2.59508643630000   -0.22579883560000
C        -3.63982217180000    2.62845770780000   -0.16823353670000
C        -2.86182229000000    3.76899115170000   -0.25978910320000
C        -1.48712335700000    3.64781351380000   -0.19322177610000
C        -0.89961330720000    2.40217691810000   -0.05963699960000
C         1.19376171490000    0.11851164280000   -0.84493397500000
C         2.56737675920000    0.09437538060000   -0.71200269360000
H         4.92518494650000   -0.24437587110000    1.77745483570000
H         2.76216577250000   -0.34015281280000    2.63614568130000
H         0.31230890100000   -0.29692182400000    2.39080535540000
H         0.15204654150000   -2.32580365180000   -0.16245701400000
H        -0.90172229570000   -4.50163227920000   -0.44618600370000
H        -3.37596028820000   -4.69636371510000   -0.49896112060000
H        -4.74655723400000   -2.64897427610000   -0.24023669020000
H        -4.71703119500000    2.69093851170000   -0.19744738370000
H        -3.32809033770000    4.73510575130000   -0.37067880320000
H        -0.85769278060000    4.52307483700000   -0.24599760160000
H         0.17560692030000    2.33411977190000   -0.00625525270000
H         0.74285222220000    0.24501263380000   -1.81808346880000
H         3.17892698840000    0.20278570330000   -1.59221243510000
$end

$rem
BASIS = 6-31G*
GUI = 2
METHOD = B3LYP
PRINT_ORBITALS false
MOLDEN_FORMAT false
--------------------------------------------------------------
 ----------------------------------------------------------------
             Standard Nuclear Orientation (Angstroms)
    I     Atom           X                Y                Z
 ----------------------------------------------------------------
    1      F      -6.9056638582     0.0351479721     0.1342235860
    2      C      -5.6132043964    -0.0132149124    -0.1772376466
    3      F      -5.4928658269    -0.1896527866    -1.4865212353
    4      C      -4.6484031841     0.1027140711     0.7237479997
    5      C      -3.2093504301     0.0678030184     0.5183927256
    6      C      -2.3838929926     0.2092855439     1.6366147105
    7      C      -1.0093711872     0.1851252207     1.5134818583
    8      C      -0.4287971389     0.0186084817     0.2628106815
    9      N       0.9901134641     0.0001499420     0.1467732295
   10      C       1.6162862623    -1.2384049725     0.0225229322
   11      C       3.0062564425    -1.3811367739    -0.0055176829
   12      S       4.1121021341    -0.0144140890     0.2087403711
   13      C       3.0214261213     1.3588972637    -0.0347513147
   14      C       1.6307043579     1.2265894154    -0.0186903453
   15      C       0.8737307915     2.3886494895    -0.1780449510
   16      C       1.4725670102     3.6255898674    -0.3385536157
   17      C       2.8495703264     3.7376567288    -0.3605129541
   18      C       3.6175336238     2.5962062750    -0.2127827538
   19      C       3.5921115750    -2.6273263361    -0.1526514652
   20      C       2.8154732689    -3.7684589069    -0.2482138634
   21      C       1.4403190416    -3.6482220282    -0.1898500947
   22      C       0.8511485998    -2.4029332952    -0.0603987844
   23      C      -1.2391527303    -0.1211623404    -0.8592724111
   24      C      -2.6135474705    -0.0979315315    -0.7344885896
   25      H      -4.9862927393     0.2404409203     1.7407880863
   26      H      -2.8284638559     0.3381988268     2.6122196900
   27      H      -0.3771673762     0.2965784318     2.3814106865
   28      H      -0.2032235530     2.3242458666    -0.1719209688
   29      H       0.8506694914     4.5006737809    -0.4505463492
   30      H       3.3250384151     4.6971331212    -0.4887738990
   31      H       4.6955253742     2.6508513787    -0.2208665290
   32      H       4.6695185541    -2.6890580477    -0.1754544568
   33      H       3.2830720393    -4.7342999723    -0.3558347899
   34      H       0.8118304059    -4.5239570148    -0.2458928482
   35      H      -0.2244166526    -2.3356112689    -0.0134194674
   36      H      -0.7824000213    -0.2478492632    -1.8296688224
   37      H      -3.2197986567    -0.2072332692    -1.6182466444
 ----------------------------------------------------------------
 Molecular Point Group                 C1    NOp =  1
 Largest Abelian Subgroup              C1    NOp =  1
 Nuclear Repulsion Energy =        2030.96559054 hartrees
 There are       87 alpha and       87 beta electrons
 Requested basis set is 6-31G(d)
 There are 123 shells and 390 basis functions

 Total QAlloc Memory Limit   4000 MB
 Mega-Array Size       188 MB
 MEM_STATIC part       192 MB
 A cutoff of  1.0D-08 yielded   3739 shell pairs
 There are     40338 function pairs
 Smallest overlap matrix eigenvalue = 3.66E-04

 Scale SEOQF with 1.000000e-02/1.000000e-01/1.000000e-01

 Standard Electronic Orientation quadrupole field applied
 Nucleus-field energy     =     0.0000000427 hartrees
 Guess from superposition of atomic densities
 Warning:  Energy on first SCF cycle will be non-variational
 SAD guess density has 174.000000 electrons

 -----------------------------------------------------------------------
  General SCF calculation program by
  Eric Jon Sundstrom, Paul Horn, Yuezhi Mao, Dmitri Zuev, Alec White,
  David Stuck, Shaama M.S., Shane Yost, Joonho Lee, David Small,
  Daniel Levine, Susi Lehtola, Hugh Burton, Evgeny Epifanovsky,
  Bang C. Huynh
 -----------------------------------------------------------------------
 Exchange:     0.2000 Hartree-Fock + 0.0800 Slater + 0.7200 B88
 Correlation:  0.1900 VWN1RPA + 0.8100 LYP
 Using SG-1 standard quadrature grid
 A restricted SCF calculation will be
 performed using DIIS
 SCF converges when DIIS error is below 1.0e-05
 ---------------------------------------
  Cycle       Energy         DIIS error
 ---------------------------------------
    1   -1428.8435502633      4.16e-02  
    2   -1422.1925075814      4.19e-03  
    3   -1421.8581594146      5.89e-03  
    4   -1422.5035676482      1.41e-03  
    5   -1422.5396067222      5.48e-04  
    6   -1422.5449737706      2.30e-04  
    7   -1422.5459829217      6.83e-05  
    8   -1422.5460672541      2.12e-05  
    9   -1422.5460756290      5.86e-06  Convergence criterion met
 ---------------------------------------
 SCF time:   CPU 120.29s  wall 121.00s 
 SCF   energy in the final basis set =    -1422.5460756290
 Total energy in the final basis set =    -1422.5460756290
 
 --------------------------------------------------------------
 
                    Orbital Energies (a.u.)
 --------------------------------------------------------------
 
 Alpha MOs
 -- Occupied --
-88.8854 -24.7544 -24.7436 -14.3742 -10.3676 -10.2366 -10.2363 -10.2339
-10.2204 -10.2168 -10.2168 -10.2130 -10.2043 -10.2028 -10.2024 -10.2021
-10.1879 -10.1878 -10.1835 -10.1835 -10.1827 -10.1826 -10.1801 -10.1800
 -7.9468  -5.9117  -5.9080  -5.9019  -1.2958  -1.2345  -0.9871  -0.8826
 -0.8640  -0.8582  -0.8159  -0.8004  -0.7677  -0.7645  -0.7532  -0.7499
 -0.7231  -0.6826  -0.6598  -0.6346  -0.6324  -0.6310  -0.6007  -0.5972
 -0.5821  -0.5587  -0.5488  -0.5476  -0.5321  -0.5290  -0.4960  -0.4797
 -0.4785  -0.4687  -0.4621  -0.4593  -0.4504  -0.4494  -0.4414  -0.4375
 -0.4355  -0.4310  -0.4199  -0.4163  -0.4125  -0.3892  -0.3852  -0.3828
 -0.3720  -0.3652  -0.3630  -0.3567  -0.3392  -0.3254  -0.3225  -0.3094
 -0.3029  -0.2729  -0.2564  -0.2542  -0.2337  -0.2192  -0.1711
 -- Virtual --
 -0.0424  -0.0221  -0.0087   0.0018   0.0072   0.0365   0.0384   0.0514
  0.0753   0.0833   0.1086   0.1208   0.1236   0.1331   0.1429   0.1495
  0.1506   0.1601   0.1638   0.1696   0.1719   0.1759   0.1818   0.1875
  0.1947   0.1987   0.2010   0.2088   0.2262   0.2476   0.2585   0.2760
  0.2817   0.2986   0.3051   0.3130   0.3175   0.3243   0.3253   0.3467
  0.3513   0.3728   0.3955   0.4027   0.4066   0.4096   0.4146   0.4163
  0.4450   0.4663   0.4898   0.5001   0.5125   0.5224   0.5244   0.5303
  0.5371   0.5417   0.5440   0.5477   0.5545   0.5556   0.5658   0.5668
  0.5715   0.5724   0.5827   0.5873   0.5917   0.5945   0.5964   0.5995
  0.6067   0.6106   0.6146   0.6149   0.6155   0.6185   0.6260   0.6315
  0.6374   0.6449   0.6543   0.6608   0.6761   0.7073   0.7098   0.7108
  0.7181   0.7412   0.7576   0.7703   0.7852   0.7946   0.8039   0.8146
  0.8233   0.8313   0.8334   0.8379   0.8449   0.8482   0.8491   0.8547
  0.8707   0.8725   0.8863   0.8900   0.8968   0.9044   0.9141   0.9170
  0.9253   0.9330   0.9362   0.9471   0.9650   0.9711   0.9765   0.9841
  1.0078   1.0221   1.0312   1.0340   1.0458   1.0580   1.0730   1.0815
  1.0965   1.1039   1.1157   1.1235   1.1361   1.1510   1.1571   1.1614
  1.1813   1.1884   1.1987   1.2102   1.2156   1.2200   1.2355   1.2442
  1.2542   1.2825   1.2870   1.2992   1.3155   1.3223   1.3364   1.3524
  1.3587   1.3940   1.4026   1.4247   1.4263   1.4372   1.4481   1.4492
  1.4519   1.4594   1.4706   1.4738   1.4825   1.4884   1.4948   1.4975
  1.5037   1.5105   1.5159   1.5443   1.5549   1.5770   1.5965   1.6158
  1.6394   1.6780   1.7153   1.7413   1.7650   1.7729   1.7738   1.7860
  1.8068   1.8121   1.8197   1.8276   1.8446   1.8509   1.8553   1.8735
  1.8803   1.8829   1.9190   1.9239   1.9312   1.9374   1.9393   1.9448
  1.9636   1.9644   1.9666   1.9789   1.9929   2.0046   2.0121   2.0220
  2.0287   2.0569   2.0766   2.1004   2.1055   2.1282   2.1288   2.1362
  2.1454   2.1484   2.1545   2.1631   2.1709   2.1870   2.1963   2.2109
  2.2273   2.2406   2.2556   2.2717   2.2881   2.2937   2.2953   2.3077
  2.3138   2.3182   2.3224   2.3472   2.3780   2.4128   2.4681   2.4966
  2.5010   2.5141   2.5402   2.5519   2.5948   2.6018   2.6163   2.6262
  2.6365   2.6393   2.6512   2.6724   2.6761   2.6976   2.7059   2.7215
  2.7233   2.7438   2.7748   2.7821   2.7829   2.7875   2.8078   2.8384
  2.8535   2.8794   2.9099   2.9571   2.9625   3.0086   3.0252   3.0696
  3.1458   3.1527   3.2843   3.3039   3.4186   3.4659   3.4726   3.9879
  4.0671   4.1038   4.1079   4.1094   4.1216   4.1243   4.1389   4.1826
  4.1849   4.2255   4.3058   4.3228   4.3358   4.3654   4.3819   4.4112
  4.4384   4.5392   4.6865   4.7175   4.7841   4.8168   5.2870
 --------------------------------------------------------------
 
          Ground-State Mulliken Net Atomic Charges

     Atom                 Charge (a.u.)
  ----------------------------------------
      1 F                    -0.243925
      2 C                     0.549698
      3 F                    -0.231694
      4 C                    -0.302283
      5 C                     0.207565
      6 C                    -0.208636
      7 C                    -0.115529
      8 C                     0.172552
      9 N                    -0.696796
     10 C                     0.340852
     11 C                    -0.124452
     12 S                     0.176412
     13 C                    -0.122597
     14 C                     0.336889
     15 C                    -0.177420
     16 C                    -0.141971
     17 C                    -0.117895
     18 C                    -0.181642
     19 C                    -0.181422
     20 C                    -0.118181
     21 C                    -0.141560
     22 C                    -0.181143
     23 C                    -0.124413
     24 C                    -0.206893
     25 H                     0.163852
     26 H                     0.137727
     27 H                     0.150511
     28 H                     0.147528
     29 H                     0.127784
     30 H                     0.126219
     31 H                     0.139917
     32 H                     0.140036
     33 H                     0.126181
     34 H                     0.127779
     35 H                     0.148100
     36 H                     0.151161
     37 H                     0.147691
  ----------------------------------------
  Sum of atomic charges =     0.000000

 -----------------------------------------------------------------
                    Cartesian Multipole Moments
 -----------------------------------------------------------------
    Charge (ESU x 10^10)
                 0.0000
    Dipole Moment (Debye)
         X      -2.1259      Y       0.1166      Z       0.5060
       Tot       2.1884
    Quadrupole Moments (Debye-Ang)
        XX    -144.2372     XY      -0.4000     YY    -133.6135
        XZ      -4.4234     YZ       0.7382     ZZ    -140.7351
    Octopole Moments (Debye-Ang^2)
       XXX     -54.7589    XXY       2.0533    XYY      -5.2960
       YYY      -2.6712    XXZ       9.4087    XYZ      -2.2319
       YYZ     -13.1182    XZZ     -58.7845    YZZ       1.6679
       ZZZ       0.3431
    Hexadecapole Moments (Debye-Ang^3)
      XXXX   -9117.8697   XXXY      -1.7672   XXYY   -1885.3682
      XYYY       8.1853   YYYY   -2986.3236   XXXZ     -40.6966
      XXYZ       5.0359   XYYZ       6.9981   YYYZ      -6.8334
      XXZZ   -1574.2965   XYZZ      -2.7075   YYZZ    -688.5083
      XZZZ      37.0620   YZZZ      12.5255   ZZZZ    -504.9608
 -----------------------------------------------------------------
Archival summary:
1\1\nia1977.scinet.local\SP\ProcedureUnspecified\6-31G*\1212013\rhickman\MonFeb717:58:472022MonFeb717:58:472022\0\\#,ProcedureUnspecified,6-31G*,\\0,1\S\C,1,1.77055\C,2,1.38491,1,116.456\H,3,1.07941,2,118.428,1,1.6553,0\C,3,1.38365,2,120.788,1,-177.57,0\H,5,1.07848,3,120.128,2,179.394,0\C,5,1.38173,3,118.981,2,-0.504217,0\H,7,1.07938,5,120.45,3,179.933,0\C,7,1.38361,5,120.376,3,-0.329536,0\H,9,1.0789,7,119.081,5,-179.512,0\C,9,1.39599,7,121.516,5,0.762368,0\N,11,1.39352,9,119.796,7,179.689,0\C,12,1.39339,11,124.412,9,165.332,0\C,13,1.39586,12,120.035,11,-167.14,0\H,14,1.07869,13,119.466,12,-0.859411,0\C,14,1.3837,13,121.532,12,179.732,0\H,16,1.07938,14,119.151,13,179.711,0\C,16,1.38163,14,120.402,13,-0.367026,0\H,18,1.07846,16,120.911,14,-179.578,0\C,18,1.38365,16,118.945,14,1.07152,0\H,20,1.07941,18,120.772,16,178.804,0\C,20,1.38487,18,120.799,16,-0.227815,0\C,12,1.42377,11,117.155,9,-5.44099,0\C,23,1.38887,12,119.442,11,-87.7242,0\H,24,1.07954,23,119.443,12,-0.110129,0\C,24,1.38024,23,119.915,12,179.769,0\H,26,1.07985,24,119.517,23,179.944,0\C,23,1.39114,12,120.896,11,91.9574,0\H,28,1.07997,23,119.352,12,0.164613,0\C,28,1.38024,23,120.36,12,-179.819,0\H,30,1.07727,28,118.98,23,179.943,0\C,26,1.39707,24,121.012,23,0.0249944,0\C,32,1.45405,26,117.988,24,179.983,0\H,33,1.08051,32,116.454,26,0.172396,0\C,33,1.32516,32,128.494,26,-179.802,0\F,35,1.32659,33,128.07,32,0.0100212,0\F,35,1.33034,33,123.023,32,179.998,0\\\@

 Total job time:  121.19s(wall), 120.69s(cpu) 
 Mon Feb  7 17:58:47 2022

        *************************************************************
        *                                                           *
        *  Thank you very much for using Q-Chem.  Have a nice day.  *
        *                                                           *
        *************************************************************


