35
 energy: -43.372810315691 gnorm: 0.000061340531 xtb: 6.4.1 (23d549d)
C        -3.33246603890000   -2.81286937950000    1.02808349620000
C        -2.34966031520000   -2.51282049820000    0.18345240190000
C        -1.83929770220000   -1.19097230070000   -0.05193104070000
C        -0.83245621850000   -0.83312028700000   -0.91093664160000
C        -0.53495067580000    0.54361312750000   -0.93196416680000
C         0.54840675640000    1.09448726000000   -1.80502479590000
C         1.87469502960000    1.24305705330000   -1.04571973850000
C         2.45461675060000   -0.10558255990000   -0.62799777120000
C         3.77611251390000    0.05587482620000    0.11944860140000
C         4.43305946930000   -1.27766378470000    0.47742589910000
C         3.64953324550000   -2.07295037020000    1.51529262780000
C        -1.33550945110000    1.26259084270000   -0.06820198890000
C        -1.44608318850000    2.66323809410000    0.24651209170000
C        -0.63856175490000    3.66384698100000   -0.09907142030000
S        -2.45800533830000    0.21096830850000    0.75896836500000
H        -3.67441997020000   -3.82344835910000    1.16356721620000
H        -3.82328678980000   -2.04993283450000    1.60972659520000
H        -1.86596274990000   -3.29103969830000   -0.39402465670000
H        -0.31562253320000   -1.55067837460000   -1.52540396420000
H         0.24183421410000    2.06140444650000   -2.20757829890000
H         0.69969049320000    0.41437990280000   -2.64664601920000
H         1.71673005610000    1.85224884260000   -0.15336318350000
H         2.59183929680000    1.76230815650000   -1.68665019070000
H         2.61774120890000   -0.72118405840000   -1.51651912530000
H         1.73298337250000   -0.61819625080000    0.00928694800000
H         3.60572786470000    0.62968333640000    1.03355438040000
H         4.46594332110000    0.62929146760000   -0.50567874710000
H         5.43356569120000   -1.07834618170000    0.86907857770000
H         4.54783934900000   -1.87731685550000   -0.42869578930000
H         3.49488967080000   -1.47751208720000    2.41258338970000
H         4.19465898470000   -2.97294709980000    1.79125007800000
H         2.67822884120000   -2.37138440760000    1.12954923620000
H        -2.31196019930000    2.89285394910000    0.85720010760000
H         0.25661142200000    3.53600910200000   -0.67761978330000
H        -0.86219943990000    4.67120948070000    0.20832243480000
