23
 energy: -36.360451390573 gnorm: 0.000092830814 xtb: 6.4.1 (23d549d)
C        -4.21774257960000   -1.41001188310000    0.10206652630000
C        -3.39027428440000   -0.37264129310000    0.11178854210000
C        -1.93607902780000   -0.42556358620000    0.00841728370000
C        -1.20794338370000   -1.60139669500000   -0.20148956060000
C         0.17026046660000   -1.52986370910000   -0.20765540110000
C         0.80401324160000   -0.30192940640000   -0.03944652770000
C         2.29470959050000   -0.29024479090000    0.04786061640000
N         2.77778553780000    0.31271604050000    1.16359327840000
O         3.01213918500000   -0.83890189830000   -0.75964850410000
C        -0.00663799060000    0.84157875280000    0.05837047820000
C         0.51003321330000    2.21148430720000    0.06545906480000
C         1.60499825080000    2.61257613630000   -0.56552813610000
N        -1.32845506360000    0.75209818640000    0.11568406490000
H        -5.28257308650000   -1.27548922370000    0.18478412330000
H        -3.87799466160000   -2.42817087150000    0.01405131550000
H        -3.77476734110000    0.63338473170000    0.21038212700000
H        -1.70741550440000   -2.54577340030000   -0.34183815220000
H         0.77474951540000   -2.41670820780000   -0.33156244680000
H         2.18366078180000    0.83826721590000    1.77913945720000
H         3.77555891800000    0.38216420650000    1.27839073380000
H        -0.13494882920000    2.92268280300000    0.56354053910000
H         2.22814703500000    1.93309814410000   -1.12322396650000
H         1.90876156060000    3.64566628370000   -0.56269101030000
