25
 energy: -33.038091843835 gnorm: 0.000032216352 xtb: 6.4.1 (23d549d)
C        -3.96285223390000    1.05216452380000   -0.10710116810000
C        -3.25910341190000   -0.06408504870000    0.04781348500000
C        -1.81084534780000   -0.19652831730000    0.04322885730000
C        -1.23818809090000   -1.45674577690000    0.22718367960000
C         0.12684739550000   -1.63470194210000    0.20349447510000
C         0.99699389980000   -0.55594856810000    0.02101639440000
N         2.36014802630000   -0.72956682750000   -0.00671911090000
C         2.96635460780000   -2.02683018500000   -0.17486068100000
C         0.43768114040000    0.73355498150000   -0.12814782010000
C         1.24230255440000    1.94568317190000   -0.28552465840000
C         2.37666794940000    2.23217653290000    0.34293274100000
C        -0.94271369910000    0.87662032450000   -0.14131511100000
H        -5.03926438810000    1.04226516310000   -0.08842516090000
H        -3.50510481830000    2.01481880010000   -0.25702086740000
H        -3.79093975890000   -0.99702210280000    0.19624804520000
H        -1.87930742760000   -2.31448176770000    0.37661859560000
H         0.52678535780000   -2.62832637830000    0.32934993280000
H         2.85726458100000    0.03398064200000   -0.44248129500000
H         2.75036342840000   -2.65372144130000    0.69184395210000
H         4.04504850900000   -1.89954409880000   -0.24028481440000
H         2.61846198090000   -2.54621266490000   -1.07698846750000
H         0.81209525060000    2.68633645350000   -0.95071153940000
H         2.81569129650000    1.57332532370000    1.07309500480000
H         2.88319329470000    3.16958854400000    0.18241043300000
H        -1.34578756960000    1.86867937570000   -0.28087048530000
