
Running Job 1 of 1 fragments/C081/conf-1/spe_input.inp
qchem fragments/C081/conf-1/spe_input.inp_233527.0 /gpfs/fs0/scratch/a/aspuru/rhickman/descriptor_computation/qchem233527/ 0
/scinet/niagara/software/commercial/qc52/exe/qcprog.exe_s fragments/C081/conf-1/spe_input.inp_233527.0 /gpfs/fs0/scratch/a/aspuru/rhickman/descriptor_computation/qchem233527/
                  Welcome to Q-Chem
     A Quantum Leap Into The Future Of Chemistry


 Q-Chem 5.2, Q-Chem, Inc., Pleasanton, CA (2019)

 License issued to: SRG Alan Aspuru-Guzik, University of Toronto

 Yihan Shao,  Zhengting Gan,  E. Epifanovsky,  A. T. B. Gilbert,  M. Wormit,  
 J. Kussmann,  A. W. Lange,  A. Behn,  Jia Deng,  Xintian Feng,  D. Ghosh,  
 M. Goldey,  P. R. Horn,  L. D. Jacobson,  I. Kaliman,  T. Kus,  A. Landau,  
 Jie Liu,  E. I. Proynov,  R. M. Richard,  R. P. Steele,  E. J. Sundstrom,  
 H. L. Woodcock III,  P. M. Zimmerman,  D. Zuev,  B. Albrecht,  E. Alguire,  
 S. A. Baeppler,  D. Barton,  Z. Benda,  Y. A. Bernard,  E. J. Berquist,  
 K. B. Bravaya,  H. Burton,  D. Casanova,  Chun-Min Chang,  Yunqing Chen,  
 A. Chien,  K. D. Closser,  M. P. Coons,  S. Coriani,  S. Dasgupta,  
 A. L. Dempwolff,  M. Diedenhofen,  Hainam Do,  R. G. Edgar,  Po-Tung Fang,  
 S. Faraji,  S. Fatehi,  Qingguo Feng,  K. D. Fenk,  J. Fosso-Tande,  
 J. Gayvert,  Qinghui Ge,  A. Ghysels,  G. Gidofalvi,  J. Gomes,  
 J. Gonthier,  A. Gunina,  D. Hait,  M. W. D. Hanson-Heine,  
 P. H. P. Harbach,  A. W. Hauser,  M. F. Herbst,  J. E. Herr,  
 E. G. Hohenstein,  Z. C. Holden,  Kerwin Hui,  B. C. Huynh,  T.-C. Jagau,  
 Hyunjun Ji,  B. Kaduk,  K. Khistyaev,  Jaehoon Kim,  P. Klunzinger,  K. Koh,  
 D. Kosenkov,  L. Koulias,  T. Kowalczyk,  C. M. Krauter,  A. Kunitsa,  
 Ka Un Lao,  A. Laurent,  K. V. Lawler,  Joonho Lee,  D. Lefrancois,  
 S. Lehtola,  D. S. Levine,  Yi-Pei Li,  You-Sheng Lin,  Fenglai Liu,  
 E. Livshits,  A. Luenser,  P. Manohar,  E. Mansoor,  S. F. Manzer,  
 Shan-Ping Mao,  Yuezhi Mao,  N. Mardirossian,  A. V. Marenich,  
 T. Markovich,  L. A. Martinez-Martinez,  S. A. Maurer,  N. J. Mayhall,  
 S. C. McKenzie,  J.-M. Mewes,  P. Morgante,  A. F. Morrison,  
 J. W. Mullinax,  K. Nanda,  T. S. Nguyen-Beck,  R. Olivares-Amaya,  
 J. A. Parkhill,  Zheng Pei,  T. M. Perrine,  F. Plasser,  P. Pokhilko,  
 S. Prager,  A. Prociuk,  E. Ramos,  D. R. Rehn,  F. Rob,  M. Scheurer,  
 M. Schneider,  N. Sergueev,  S. M. Sharada,  S. Sharma,  D. W. Small,  
 T. Stauch,  T. Stein,  Yu-Chuan Su,  A. J. W. Thom,  A. Tkatchenko,  
 T. Tsuchimochi,  N. M. Tubman,  L. Vogt,  M. L. Vidal,  O. Vydrov,  
 M. A. Watson,  J. Wenzel,  M. de Wergifosse,  T. A. Wesolowski,  A. White,  
 J. Witte,  A. Yamada,  Jun Yang,  K. Yao,  S. Yeganeh,  S. R. Yost,  
 Zhi-Qiang You,  A. Zech,  Igor Ying Zhang,  Xing Zhang,  Yan Zhao,  
 Ying Zhu,  B. R. Brooks,  G. K. L. Chan,  C. J. Cramer,  M. S. Gordon,  
 W. J. Hehre,  A. Klamt,  M. W. Schmidt,  C. D. Sherrill,  D. G. Truhlar,  
 A. Aspuru-Guzik,  R. Baer,  A. T. Bell,  N. A. Besley,  Jeng-Da Chai,  
 A. E. DePrince, III,  R. A. DiStasio Jr.,  A. Dreuw,  B. D. Dunietz,  
 T. R. Furlani,  Chao-Ping Hsu,  Yousung Jung,  Jing Kong,  D. S. Lambrecht,  
 WanZhen Liang,  C. Ochsenfeld,  V. A. Rassolov,  L. V. Slipchenko,  
 J. E. Subotnik,  T. Van Voorhis,  J. M. Herbert,  A. I. Krylov,  
 P. M. W. Gill,  M. Head-Gordon

 Contributors to earlier versions of Q-Chem not listed above: 
 R. D. Adamson,  B. Austin,  J. Baker,  G. J. O. Beran,  K. Brandhorst,  
 S. T. Brown,  E. F. C. Byrd,  A. K. Chakraborty,  C.-L. Cheng,  
 Siu Hung Chien,  D. M. Chipman,  D. L. Crittenden,  H. Dachsel,  
 R. J. Doerksen,  A. D. Dutoi,  L. Fusti-Molnar,  W. A. Goddard III,  
 A. Golubeva-Zadorozhnaya,  S. R. Gwaltney,  G. Hawkins,  A. Heyden,  
 S. Hirata,  G. Kedziora,  F. J. Keil,  C. Kelley,  Jihan Kim,  R. A. King,  
 R. Z. Khaliullin,  P. P. Korambath,  W. Kurlancheek,  A. M. Lee,  M. S. Lee,  
 S. V. Levchenko,  Ching Yeh Lin,  D. Liotard,  R. C. Lochan,  I. Lotan,  
 P. E. Maslen,  N. Nair,  D. P. O'Neill,  D. Neuhauser,  E. Neuscamman,  
 C. M. Oana,  R. Olson,  B. Peters,  R. Peverati,  P. A. Pieniazek,  
 Y. M. Rhee,  J. Ritchie,  M. A. Rohrdanz,  E. Rosta,  N. J. Russ,  
 H. F. Schaefer III,  N. E. Schultz,  N. Shenvi,  A. C. Simmonett,  A. Sodt,  
 D. Stuck,  K. S. Thanthiriwatte,  V. Vanovschi,  Tao Wang,  A. Warshel,  
 C. F. Williams,  Q. Wu,  X. Xu,  W. Zhang

 Please cite Q-Chem as follows:
 Y. Shao et al., Mol. Phys. 113, 184-215 (2015)
 DOI: 10.1080/00268976.2014.952696

 Q-Chem 5.2.1 for Intel X86 EM64T Linux

 Parts of Q-Chem use Armadillo 8.300.2 (Tropical Shenanigans).
 http://arma.sourceforge.net/

 Q-Chem begins on Fri Feb  4 12:34:47 2022  

Host: 
0

     Scratch files written to /gpfs/fs0/scratch/a/aspuru/rhickman/descriptor_computation/qchem233527//
 Jul1719 |scratch|qcdevops|jenkins|workspace|build_RNUM -1
Processing $rem in /scinet/niagara/software/commercial/qc52/config/preferences:
	 MEM_TOTAL  4000 
NAlpha2: 168
NElect   168
Mult     1

Checking the input file for inconsistencies... 	...done.

--------------------------------------------------------------
User input:
--------------------------------------------------------------
$molecule
0 1
C         3.07651146290000    0.06858522710000    2.81054371840000
C         1.86335903160000    0.28146915390000    2.30658323990000
C         1.35225988300000   -0.32875433570000    1.10966761610000
S         2.25854832100000   -1.56486621820000    0.29352334180000
C         1.02162669030000   -1.73605734180000   -0.91338520300000
C         1.18304037550000   -2.67040568880000   -1.99388355330000
C         2.18046066480000   -3.54502202040000   -2.10024818400000
C        -0.03397802680000   -0.87758871920000   -0.68185423850000
C        -1.25927642420000   -0.87565340190000   -1.54709054610000
C        -2.14275542130000   -2.10383713580000   -1.27894186960000
C        -2.78577375870000   -2.09845383420000    0.10891083260000
C        -4.01343643570000   -1.19297361730000    0.19389083520000
C        -4.69006683500000   -1.22971987390000    1.56486274670000
C        -3.87268344700000   -0.55075207340000    2.65770897630000
C         0.15690924350000   -0.07261887920000    0.46958814260000
C        -0.77337813560000    1.00851462930000    0.93150822560000
C        -0.24199358880000    2.40085913250000    0.56280356160000
C        -0.17198797040000    2.61066004710000   -0.94758678280000
C         0.40476030710000    3.97169700260000   -1.33749785040000
C         1.90231301360000    4.09472935630000   -1.06352762830000
C         2.45525619460000    5.42571703980000   -1.55837890080000
H         3.40435463770000    0.54809898280000    3.71585016430000
H         3.77815851440000   -0.59179523990000    2.32846885010000
H         1.18511142000000    0.95572048640000    2.81255527760000
H         0.42324001490000   -2.62985212260000   -2.76300510420000
H         2.95002561230000   -3.61529375940000   -1.34943632040000
H         2.25619115920000   -4.21641109630000   -2.93717681050000
H        -0.95839681540000   -0.88208261120000   -2.59772745530000
H        -1.83592710360000    0.03302057510000   -1.38382846680000
H        -1.52757979320000   -3.00055909840000   -1.37835372520000
H        -2.92628566830000   -2.15115415220000   -2.03932733240000
H        -2.03860518800000   -1.79392649870000    0.84283558960000
H        -3.09509671670000   -3.11694685330000    0.35642066820000
H        -4.73524633990000   -1.51686150650000   -0.56086948420000
H        -3.74052900850000   -0.16164477210000   -0.03855416980000
H        -4.87649047020000   -2.26927378190000    1.84410731070000
H        -5.65909619110000   -0.72985303880000    1.49050803810000
H        -2.91723949040000   -1.04930810660000    2.79852857760000
H        -4.41116367630000   -0.57776528750000    3.60245714860000
H        -3.68512617580000    0.48996117830000    2.40173386650000
H        -0.89245902710000    0.94892020170000    2.01611921830000
H        -1.75845201880000    0.87193757470000    0.48801214350000
H         0.75253527720000    2.52299479670000    0.99327919700000
H        -0.89593988130000    3.15854016600000    1.00218052300000
H        -1.17976339640000    2.52519598820000   -1.36304743710000
H         0.43866000910000    1.82247627970000   -1.39390483220000
H        -0.12829645360000    4.75956360050000   -0.79934939070000
H         0.23434724460000    4.12987396180000   -2.40551649170000
H         2.42616461040000    3.27566134220000   -1.56185916200000
H         2.09338343310000    4.00674614590000    0.00725805520000
H         2.30443152930000    5.52767269030000   -2.63108982620000
H         3.52090609310000    5.49788767060000   -1.35355495520000
H         1.95376924920000    6.25464004120000   -1.06311678390000
$end

$rem
BASIS = 6-31G*
GUI = 2
METHOD = B3LYP
PRINT_ORBITALS false
MOLDEN_FORMAT false
--------------------------------------------------------------
 ----------------------------------------------------------------
             Standard Nuclear Orientation (Angstroms)
    I     Atom           X                Y                Z
 ----------------------------------------------------------------
    1      C       1.7101163957     1.7528204112    -3.4267691621
    2      C       1.1276245711     0.8275300070    -2.6681022432
    3      C       0.5039321099     1.0800296938    -1.3978842779
    4      S       0.3127092007     2.7051353772    -0.8166028381
    5      C      -0.4708881253     2.1428816223     0.6276117244
    6      C      -0.9004915120     3.0759774653     1.6332513089
    7      C      -0.8632546356     4.4003169125     1.5073432496
    8      C      -0.5758732946     0.7668026101     0.6437656336
    9      C      -1.2716171437     0.0373554769     1.7545496597
   10      C      -2.7973807727     0.1960896934     1.6666694460
   11      C      -3.4118952464    -0.5014230389     0.4519741611
   12      C      -3.5768625991    -2.0074575471     0.6492493632
   13      C      -4.2423394677    -2.6974716934    -0.5422891304
   14      C      -3.3500287256    -2.7604644533    -1.7764849051
   15      C      -0.0163186722     0.1610883750    -0.5095959057
   16      C       0.0938420866    -1.3158668356    -0.7422380067
   17      C       1.5193624548    -1.8204625955    -0.4772650261
   18      C       1.9269783257    -1.6574512834     0.9847448291
   19      C       3.3626497189    -2.1048013921     1.2600925027
   20      C       4.4124032041    -1.1658904866     0.6690555469
   21      C       5.8245781037    -1.5920483897     1.0515521504
   22      H       2.1559226051     1.5077083285    -4.3744881293
   23      H       1.7590697085     2.7840350972    -3.1185371565
   24      H       1.1011466445    -0.2004546728    -3.0045376791
   25      H      -1.2711581044     2.6362718114     2.5496324277
   26      H      -0.5053710747     4.8702884405     0.6062700561
   27      H      -1.1904549767     5.0523162359     2.2977765131
   28      H      -0.9319169670     0.4343001015     2.7144697312
   29      H      -1.0115241096    -1.0194309570     1.7339837726
   30      H      -3.0318141127     1.2614442700     1.6167226362
   31      H      -3.2494898567    -0.2023124435     2.5783808661
   32      H      -2.7917282277    -0.2993041980    -0.4222021158
   33      H      -4.3987584358    -0.0718971762     0.2625581645
   34      H      -4.1914871461    -2.1747919090     1.5379629953
   35      H      -2.6068975738    -2.4742487657     0.8320665918
   36      H      -5.1671726902    -2.1712823538    -0.7896995495
   37      H      -4.5107322747    -3.7162688819    -0.2517190727
   38      H      -3.0988349831    -1.7635039495    -2.1289517691
   39      H      -3.8579321922    -3.2863494120    -2.5819157581
   40      H      -2.4267816336    -3.2905708907    -1.5520143475
   41      H      -0.1778950035    -1.5439287450    -1.7758043952
   42      H      -0.6013800110    -1.8510923329    -0.0973252034
   43      H       2.2120740751    -1.2664699802    -1.1117387070
   44      H       1.5793853508    -2.8765322217    -0.7527511653
   45      H       1.2502829045    -2.2483632189     1.6079858430
   46      H       1.8167078097    -0.6103809820     1.2759639982
   47      H       3.5117553472    -3.1118166062     0.8623803944
   48      H       3.5116627153    -2.1531773166     2.3418407531
   49      H       4.2288248486    -0.1509790690     1.0294456502
   50      H       4.3282451415    -1.1509442948    -0.4188437878
   51      H       5.9460438864    -1.5874389435     2.1327905979
   52      H       6.5589446496    -0.9151432848     0.6211146869
   53      H       6.0306958217    -2.5971750261     0.6894430588
 ----------------------------------------------------------------
 Molecular Point Group                 C1    NOp =  1
 Largest Abelian Subgroup              C1    NOp =  1
 Nuclear Repulsion Energy =        1880.24390312 hartrees
 There are       84 alpha and       84 beta electrons
 Requested basis set is 6-31G(d)
 There are 149 shells and 383 basis functions

 Total QAlloc Memory Limit   4000 MB
 Mega-Array Size       188 MB
 MEM_STATIC part       192 MB
 A cutoff of  1.0D-08 yielded   5604 shell pairs
 There are     39652 function pairs
 Smallest overlap matrix eigenvalue = 5.63E-04

 Scale SEOQF with 1.000000e-02/1.000000e-01/1.000000e-01

 Standard Electronic Orientation quadrupole field applied
 Nucleus-field energy     =     0.0000000170 hartrees
 Guess from superposition of atomic densities
 Warning:  Energy on first SCF cycle will be non-variational
 SAD guess density has 168.000000 electrons

 -----------------------------------------------------------------------
  General SCF calculation program by
  Eric Jon Sundstrom, Paul Horn, Yuezhi Mao, Dmitri Zuev, Alec White,
  David Stuck, Shaama M.S., Shane Yost, Joonho Lee, David Small,
  Daniel Levine, Susi Lehtola, Hugh Burton, Evgeny Epifanovsky,
  Bang C. Huynh
 -----------------------------------------------------------------------
 Exchange:     0.2000 Hartree-Fock + 0.0800 Slater + 0.7200 B88
 Correlation:  0.1900 VWN1RPA + 0.8100 LYP
 Using SG-1 standard quadrature grid
 A restricted SCF calculation will be
 performed using DIIS
 SCF converges when DIIS error is below 1.0e-05
 ---------------------------------------
  Cycle       Energy         DIIS error
 ---------------------------------------
    1   -1183.8380327658      4.02e-02  
    2   -1179.1168860742      4.68e-03  
    3   -1178.9895656457      5.33e-03  
    4   -1179.5415487912      9.94e-04  
    5   -1179.5584798195      4.43e-04  
    6   -1179.5622455600      1.08e-04  
    7   -1179.5624380307      5.00e-05  
    8   -1179.5624855770      1.17e-05  
    9   -1179.5624880676      1.68e-06  Convergence criterion met
 ---------------------------------------
 SCF time:   CPU 148.30s  wall 149.00s 
 SCF   energy in the final basis set =    -1179.5624880676
 Total energy in the final basis set =    -1179.5624880676
 
 --------------------------------------------------------------
 
                    Orbital Energies (a.u.)
 --------------------------------------------------------------
 
 Alpha MOs
 -- Occupied --
-88.8931 -10.2090 -10.2090 -10.1940 -10.1939 -10.1893 -10.1888 -10.1850
-10.1849 -10.1782 -10.1782 -10.1772 -10.1771 -10.1746 -10.1736 -10.1715
-10.1714 -10.1710 -10.1708 -10.1674 -10.1650  -7.9552  -5.9193  -5.9156
 -5.9119  -0.8888  -0.8160  -0.8137  -0.8007  -0.7859  -0.7712  -0.7640
 -0.7342  -0.7236  -0.6886  -0.6854  -0.6477  -0.6353  -0.6259  -0.5973
 -0.5938  -0.5680  -0.5634  -0.5569  -0.5288  -0.5084  -0.4895  -0.4765
 -0.4710  -0.4625  -0.4498  -0.4473  -0.4416  -0.4335  -0.4285  -0.4222
 -0.4178  -0.4125  -0.4049  -0.4009  -0.3931  -0.3856  -0.3800  -0.3766
 -0.3701  -0.3636  -0.3574  -0.3532  -0.3518  -0.3445  -0.3391  -0.3360
 -0.3309  -0.3229  -0.3209  -0.3175  -0.3158  -0.3131  -0.3094  -0.3059
 -0.3029  -0.2636  -0.2351  -0.1914
 -- Virtual --
 -0.0513   0.0146   0.0406   0.0735   0.0779   0.0897   0.0929   0.1006
  0.1026   0.1048   0.1095   0.1247   0.1278   0.1327   0.1343   0.1431
  0.1491   0.1529   0.1579   0.1590   0.1643   0.1692   0.1739   0.1767
  0.1794   0.1809   0.1856   0.1902   0.1911   0.1975   0.2015   0.2061
  0.2100   0.2152   0.2203   0.2281   0.2370   0.2442   0.2452   0.2553
  0.2575   0.2612   0.2659   0.2686   0.2759   0.2780   0.2864   0.2906
  0.2942   0.3008   0.3027   0.3234   0.3372   0.3477   0.3531   0.3722
  0.3734   0.4234   0.4710   0.4784   0.4797   0.4870   0.4941   0.5065
  0.5116   0.5149   0.5216   0.5334   0.5387   0.5430   0.5463   0.5517
  0.5565   0.5604   0.5680   0.5757   0.5829   0.5843   0.5913   0.6025
  0.6098   0.6152   0.6173   0.6368   0.6488   0.6522   0.6622   0.6679
  0.6702   0.6754   0.6821   0.6879   0.6918   0.7031   0.7050   0.7150
  0.7172   0.7364   0.7501   0.7591   0.7677   0.7778   0.7903   0.7922
  0.8066   0.8154   0.8401   0.8455   0.8465   0.8524   0.8555   0.8611
  0.8629   0.8704   0.8736   0.8755   0.8807   0.8855   0.8902   0.8922
  0.8997   0.9048   0.9159   0.9163   0.9210   0.9265   0.9322   0.9357
  0.9416   0.9462   0.9519   0.9587   0.9618   0.9726   0.9792   0.9805
  0.9874   0.9921   0.9973   1.0018   1.0048   1.0163   1.0225   1.0267
  1.0429   1.0469   1.0571   1.0697   1.0782   1.0838   1.0971   1.1122
  1.1156   1.1322   1.1478   1.1521   1.1790   1.1844   1.2115   1.2250
  1.2294   1.2523   1.2900   1.3068   1.3383   1.3573   1.3606   1.3755
  1.3857   1.3993   1.4291   1.4437   1.4462   1.4562   1.4641   1.4762
  1.4885   1.4975   1.5306   1.5613   1.5739   1.5980   1.6088   1.6154
  1.6462   1.6522   1.6659   1.6953   1.7096   1.7183   1.7368   1.7485
  1.7579   1.7785   1.7835   1.8233   1.8314   1.8446   1.8511   1.8560
  1.8701   1.8724   1.8825   1.8999   1.9092   1.9263   1.9329   1.9427
  1.9553   1.9672   1.9809   1.9902   1.9940   2.0007   2.0162   2.0242
  2.0267   2.0344   2.0488   2.0575   2.0645   2.0838   2.0920   2.1065
  2.1198   2.1282   2.1330   2.1570   2.1664   2.1935   2.2016   2.2256
  2.2400   2.2548   2.2726   2.2756   2.3053   2.3119   2.3227   2.3311
  2.3454   2.3466   2.3486   2.3608   2.3720   2.3853   2.3970   2.4086
  2.4293   2.4316   2.4547   2.4565   2.4635   2.4796   2.4916   2.5067
  2.5360   2.5480   2.5627   2.5656   2.5977   2.6085   2.6405   2.6522
  2.6820   2.7131   2.7184   2.7483   2.7550   2.7691   2.8047   2.8481
  2.8637   2.9416   2.9583   3.0150   3.1308   3.2205   3.9799   4.1144
  4.1278   4.1329   4.1379   4.1680   4.2065   4.2161   4.2329   4.2784
  4.3338   4.3709   4.3724   4.4437   4.4617   4.4969   4.5273   4.5626
  4.5798   4.6038   4.7182
 --------------------------------------------------------------
 
          Ground-State Mulliken Net Atomic Charges

     Atom                 Charge (a.u.)
  ----------------------------------------
      1 C                    -0.378186
      2 C                    -0.055245
      3 C                    -0.202079
      4 S                     0.233365
      5 C                    -0.202637
      6 C                    -0.055390
      7 C                    -0.378276
      8 C                     0.114535
      9 C                    -0.354409
     10 C                    -0.258059
     11 C                    -0.263962
     12 C                    -0.255129
     13 C                    -0.249913
     14 C                    -0.448354
     15 C                     0.108900
     16 C                    -0.360080
     17 C                    -0.259717
     18 C                    -0.260899
     19 C                    -0.248148
     20 C                    -0.252220
     21 C                    -0.440945
     22 H                     0.143832
     23 H                     0.157469
     24 H                     0.138332
     25 H                     0.138973
     26 H                     0.157586
     27 H                     0.143985
     28 H                     0.146762
     29 H                     0.147793
     30 H                     0.142860
     31 H                     0.127511
     32 H                     0.150231
     33 H                     0.130298
     34 H                     0.127518
     35 H                     0.128639
     36 H                     0.131226
     37 H                     0.128952
     38 H                     0.151991
     39 H                     0.142221
     40 H                     0.141485
     41 H                     0.149025
     42 H                     0.148961
     43 H                     0.148588
     44 H                     0.127719
     45 H                     0.122765
     46 H                     0.145891
     47 H                     0.124841
     48 H                     0.125983
     49 H                     0.135303
     50 H                     0.137133
     51 H                     0.140969
     52 H                     0.141609
     53 H                     0.140400
  ----------------------------------------
  Sum of atomic charges =     0.000000

 -----------------------------------------------------------------
                    Cartesian Multipole Moments
 -----------------------------------------------------------------
    Charge (ESU x 10^10)
                 0.0000
    Dipole Moment (Debye)
         X      -0.3973      Y      -1.1961      Z       0.4855
       Tot       1.3506
    Quadrupole Moments (Debye-Ang)
        XX    -141.2802     XY       0.0649     YY    -138.2259
        XZ      -4.1930     YZ       2.4092     ZZ    -135.5220
    Octopole Moments (Debye-Ang^2)
       XXX     -15.5274    XXY      -1.6254    XYY      -1.5852
       YYY      12.4255    XXZ      -2.8756    XYZ      -6.4372
       YYZ       4.3035    XZZ       5.6063    YZZ       5.0233
       ZZZ      -1.9179
    Hexadecapole Moments (Debye-Ang^3)
      XXXX   -6158.8708   XXXY      40.2945   XXYY   -1664.4200
      XYYY      -7.9929   YYYY   -3646.6089   XXXZ     -17.2058
      XXYZ       6.6669   XYYZ     -37.4121   YYYZ      29.7866
      XXZZ   -1320.3824   XYZZ       3.8404   YYZZ    -935.5004
      XZZZ     -55.2574   YZZZ      11.6312   ZZZZ   -1906.9662
 -----------------------------------------------------------------
Archival summary:
1\1\nia0001.scinet.local\SP\ProcedureUnspecified\6-31G*\12032\rhickman\FriFeb412:37:172022FriFeb412:37:172022\0\\#,ProcedureUnspecified,6-31G*,\\0,1\S\C,1,1.7365\C,2,1.37992,1,111.483\C,3,1.41783,2,112.827,1,0.179688,0\C,4,1.38017,3,112.731,2,-0.31542,0\C,2,1.43743,1,120.529,3,179.374,0\H,6,1.08196,2,115.535,1,-173.09,0\C,6,1.3308,2,124.858,1,6.69856,0\H,8,1.07564,6,121.685,2,-179.538,0\H,8,1.07741,6,121.485,2,0.599315,0\C,5,1.43755,4,128.042,3,-178.662,0\H,11,1.08189,5,115.538,4,5.88309,0\C,11,1.33083,5,124.846,4,-174.442,0\H,13,1.07562,11,121.68,5,-179.449,0\H,13,1.07744,11,121.499,5,0.693786,0\C,3,1.49922,2,121.901,1,-176.443,0\H,16,1.0889,3,110.207,2,-164.239,0\H,16,1.09275,3,109.518,2,-46.3145,0\C,4,1.5,3,125.289,2,177.003,0\H,19,1.08852,4,110.322,3,18.6933,0\H,19,1.09289,4,109.246,3,136.238,0\C,16,1.53523,3,111.422,2,74.3566,0\H,22,1.09056,16,108.809,3,-56.8976,0\H,22,1.09306,16,108.968,3,-174.451,0\C,22,1.5265,16,112.219,3,64.4036,0\H,25,1.09239,22,109.313,16,-56.0565,0\H,25,1.0934,22,108.841,16,61.2973,0\C,25,1.52875,22,113.08,16,-177.812,0\H,28,1.09293,25,109.402,22,-51.4531,0\H,28,1.09303,25,108.617,22,-168.526,0\C,28,1.52737,25,113.32,22,70.8857,0\H,31,1.09125,28,109.949,25,-63.0618,0\H,31,1.09253,28,109.142,25,54.8034,0\C,31,1.52386,28,111.585,25,175.872,0\H,34,1.08755,31,110.631,28,179.863,0\H,34,1.08805,31,110.592,28,-60.0485,0\H,34,1.08807,31,110.509,28,59.8245,0\C,19,1.53651,4,111.592,3,-103.48,0\H,38,1.09199,19,108.457,4,-53.4515,0\H,38,1.09286,19,108.991,4,-170.511,0\C,38,1.52959,19,113.406,4,67.5285,0\H,41,1.09071,38,108.877,19,-43.6648,0\H,41,1.09283,38,108.736,19,-160.58,0\C,41,1.52783,38,112.976,19,79.2865,0\H,44,1.09186,41,110.311,38,-60.0995,0\H,44,1.09342,41,108.451,38,57.1776,0\C,44,1.52929,41,113.026,38,177.702,0\H,47,1.09243,44,109.119,41,-51.5489,0\H,47,1.09289,44,108.682,41,-168.541,0\C,47,1.52428,44,113.252,41,70.5595,0\H,50,1.08686,47,111.098,44,-61.8897,0\H,50,1.08777,47,110.253,44,178.244,0\H,50,1.08802,47,110.477,44,58.6137,0\\\@

 Total job time:  149.98s(wall), 148.72s(cpu) 
 Fri Feb  4 12:37:17 2022

        *************************************************************
        *                                                           *
        *  Thank you very much for using Q-Chem.  Have a nice day.  *
        *                                                           *
        *************************************************************


