
Running Job 1 of 1 fragments/A026/conf-2/spe_input.inp
qchem fragments/A026/conf-2/spe_input.inp_243183.0 /gpfs/fs0/scratch/a/aspuru/rhickman/descriptor_computation/qchem243183/ 0
/scinet/niagara/software/commercial/qc52/exe/qcprog.exe_s fragments/A026/conf-2/spe_input.inp_243183.0 /gpfs/fs0/scratch/a/aspuru/rhickman/descriptor_computation/qchem243183/
                  Welcome to Q-Chem
     A Quantum Leap Into The Future Of Chemistry


 Q-Chem 5.2, Q-Chem, Inc., Pleasanton, CA (2019)

 License issued to: SRG Alan Aspuru-Guzik, University of Toronto

 Yihan Shao,  Zhengting Gan,  E. Epifanovsky,  A. T. B. Gilbert,  M. Wormit,  
 J. Kussmann,  A. W. Lange,  A. Behn,  Jia Deng,  Xintian Feng,  D. Ghosh,  
 M. Goldey,  P. R. Horn,  L. D. Jacobson,  I. Kaliman,  T. Kus,  A. Landau,  
 Jie Liu,  E. I. Proynov,  R. M. Richard,  R. P. Steele,  E. J. Sundstrom,  
 H. L. Woodcock III,  P. M. Zimmerman,  D. Zuev,  B. Albrecht,  E. Alguire,  
 S. A. Baeppler,  D. Barton,  Z. Benda,  Y. A. Bernard,  E. J. Berquist,  
 K. B. Bravaya,  H. Burton,  D. Casanova,  Chun-Min Chang,  Yunqing Chen,  
 A. Chien,  K. D. Closser,  M. P. Coons,  S. Coriani,  S. Dasgupta,  
 A. L. Dempwolff,  M. Diedenhofen,  Hainam Do,  R. G. Edgar,  Po-Tung Fang,  
 S. Faraji,  S. Fatehi,  Qingguo Feng,  K. D. Fenk,  J. Fosso-Tande,  
 J. Gayvert,  Qinghui Ge,  A. Ghysels,  G. Gidofalvi,  J. Gomes,  
 J. Gonthier,  A. Gunina,  D. Hait,  M. W. D. Hanson-Heine,  
 P. H. P. Harbach,  A. W. Hauser,  M. F. Herbst,  J. E. Herr,  
 E. G. Hohenstein,  Z. C. Holden,  Kerwin Hui,  B. C. Huynh,  T.-C. Jagau,  
 Hyunjun Ji,  B. Kaduk,  K. Khistyaev,  Jaehoon Kim,  P. Klunzinger,  K. Koh,  
 D. Kosenkov,  L. Koulias,  T. Kowalczyk,  C. M. Krauter,  A. Kunitsa,  
 Ka Un Lao,  A. Laurent,  K. V. Lawler,  Joonho Lee,  D. Lefrancois,  
 S. Lehtola,  D. S. Levine,  Yi-Pei Li,  You-Sheng Lin,  Fenglai Liu,  
 E. Livshits,  A. Luenser,  P. Manohar,  E. Mansoor,  S. F. Manzer,  
 Shan-Ping Mao,  Yuezhi Mao,  N. Mardirossian,  A. V. Marenich,  
 T. Markovich,  L. A. Martinez-Martinez,  S. A. Maurer,  N. J. Mayhall,  
 S. C. McKenzie,  J.-M. Mewes,  P. Morgante,  A. F. Morrison,  
 J. W. Mullinax,  K. Nanda,  T. S. Nguyen-Beck,  R. Olivares-Amaya,  
 J. A. Parkhill,  Zheng Pei,  T. M. Perrine,  F. Plasser,  P. Pokhilko,  
 S. Prager,  A. Prociuk,  E. Ramos,  D. R. Rehn,  F. Rob,  M. Scheurer,  
 M. Schneider,  N. Sergueev,  S. M. Sharada,  S. Sharma,  D. W. Small,  
 T. Stauch,  T. Stein,  Yu-Chuan Su,  A. J. W. Thom,  A. Tkatchenko,  
 T. Tsuchimochi,  N. M. Tubman,  L. Vogt,  M. L. Vidal,  O. Vydrov,  
 M. A. Watson,  J. Wenzel,  M. de Wergifosse,  T. A. Wesolowski,  A. White,  
 J. Witte,  A. Yamada,  Jun Yang,  K. Yao,  S. Yeganeh,  S. R. Yost,  
 Zhi-Qiang You,  A. Zech,  Igor Ying Zhang,  Xing Zhang,  Yan Zhao,  
 Ying Zhu,  B. R. Brooks,  G. K. L. Chan,  C. J. Cramer,  M. S. Gordon,  
 W. J. Hehre,  A. Klamt,  M. W. Schmidt,  C. D. Sherrill,  D. G. Truhlar,  
 A. Aspuru-Guzik,  R. Baer,  A. T. Bell,  N. A. Besley,  Jeng-Da Chai,  
 A. E. DePrince, III,  R. A. DiStasio Jr.,  A. Dreuw,  B. D. Dunietz,  
 T. R. Furlani,  Chao-Ping Hsu,  Yousung Jung,  Jing Kong,  D. S. Lambrecht,  
 WanZhen Liang,  C. Ochsenfeld,  V. A. Rassolov,  L. V. Slipchenko,  
 J. E. Subotnik,  T. Van Voorhis,  J. M. Herbert,  A. I. Krylov,  
 P. M. W. Gill,  M. Head-Gordon

 Contributors to earlier versions of Q-Chem not listed above: 
 R. D. Adamson,  B. Austin,  J. Baker,  G. J. O. Beran,  K. Brandhorst,  
 S. T. Brown,  E. F. C. Byrd,  A. K. Chakraborty,  C.-L. Cheng,  
 Siu Hung Chien,  D. M. Chipman,  D. L. Crittenden,  H. Dachsel,  
 R. J. Doerksen,  A. D. Dutoi,  L. Fusti-Molnar,  W. A. Goddard III,  
 A. Golubeva-Zadorozhnaya,  S. R. Gwaltney,  G. Hawkins,  A. Heyden,  
 S. Hirata,  G. Kedziora,  F. J. Keil,  C. Kelley,  Jihan Kim,  R. A. King,  
 R. Z. Khaliullin,  P. P. Korambath,  W. Kurlancheek,  A. M. Lee,  M. S. Lee,  
 S. V. Levchenko,  Ching Yeh Lin,  D. Liotard,  R. C. Lochan,  I. Lotan,  
 P. E. Maslen,  N. Nair,  D. P. O'Neill,  D. Neuhauser,  E. Neuscamman,  
 C. M. Oana,  R. Olson,  B. Peters,  R. Peverati,  P. A. Pieniazek,  
 Y. M. Rhee,  J. Ritchie,  M. A. Rohrdanz,  E. Rosta,  N. J. Russ,  
 H. F. Schaefer III,  N. E. Schultz,  N. Shenvi,  A. C. Simmonett,  A. Sodt,  
 D. Stuck,  K. S. Thanthiriwatte,  V. Vanovschi,  Tao Wang,  A. Warshel,  
 C. F. Williams,  Q. Wu,  X. Xu,  W. Zhang

 Please cite Q-Chem as follows:
 Y. Shao et al., Mol. Phys. 113, 184-215 (2015)
 DOI: 10.1080/00268976.2014.952696

 Q-Chem 5.2.1 for Intel X86 EM64T Linux

 Parts of Q-Chem use Armadillo 8.300.2 (Tropical Shenanigans).
 http://arma.sourceforge.net/

 Q-Chem begins on Mon Feb  7 08:04:28 2022  

Host: 
0

     Scratch files written to /gpfs/fs0/scratch/a/aspuru/rhickman/descriptor_computation/qchem243183//
 Jul1719 |scratch|qcdevops|jenkins|workspace|build_RNUM -1
Processing $rem in /scinet/niagara/software/commercial/qc52/config/preferences:
	 MEM_TOTAL  4000 
NAlpha2: 190
NElect   190
Mult     1

Checking the input file for inconsistencies... 	...done.

--------------------------------------------------------------
User input:
--------------------------------------------------------------
$molecule
0 1
C        -2.17649807420000    6.07916674570000   -0.20902708700000
O        -1.31708148000000    4.97060283980000   -0.11743114130000
C        -1.86081217860000    3.71803647870000   -0.08546734890000
C        -3.23168669730000    3.45104968310000   -0.12919625210000
C        -3.69826949320000    2.14984803120000   -0.11035848980000
C        -0.93602820780000    2.67868880750000   -0.00573936510000
C        -1.40969800290000    1.38159702190000    0.03939916780000
C        -2.79469046360000    1.10328944330000   -0.02990189110000
C        -2.92645959920000   -0.32677346020000   -0.01248250100000
C        -4.00806441410000   -1.19165987340000   -0.03359082960000
C        -3.78909948400000   -2.55548165310000    0.02189439780000
C        -2.49193429510000   -3.06665052120000    0.11593969820000
O        -2.19018374030000   -4.39605117700000    0.19390102090000
C        -3.24018441030000   -5.33053333210000    0.18406836480000
C        -1.39096790640000   -2.21265490740000    0.13930540230000
C        -1.61509300360000   -0.85190515910000    0.05711812760000
N        -0.70669997540000    0.19120204970000    0.08963136700000
C         0.68196771170000    0.06357440480000    0.16350096520000
C         1.41160130100000    0.80949226240000    1.08768060380000
C         2.78185885530000    0.67976406620000    1.15391102340000
C         3.46797249760000   -0.19892331460000    0.31082238310000
C         4.91181953020000   -0.28645016130000    0.44186470790000
C         5.75839732630000   -1.05017131740000   -0.23370385690000
F         5.48686226310000   -1.92221196970000   -1.19784969270000
F         7.07386242300000   -1.04216631820000   -0.01959411050000
C         2.72812213950000   -0.94392753450000   -0.61071515590000
C         1.35753283540000   -0.81178973170000   -0.68517624120000
H        -1.52725674470000    6.95342284030000   -0.22497439700000
H        -2.84621563540000    6.14378434800000    0.65496332740000
H        -2.77052022760000    6.05481811160000   -1.12854174700000
H        -3.94346637550000    4.25862601740000   -0.18848451080000
H        -4.75856338010000    1.95478346900000   -0.16192213280000
H         0.11515735040000    2.91608886230000    0.00419132960000
H        -5.01515950300000   -0.80740089770000   -0.08885663030000
H        -4.63755330440000   -3.22034547680000    0.00150456890000
H        -2.76432604290000   -6.30734685340000    0.25784709570000
H        -3.81710910030000   -5.28036388920000   -0.74531408630000
H        -3.91232616290000   -5.19185342970000    1.03732700770000
H        -0.40466115970000   -2.63659317420000    0.23342426990000
H         0.89453827350000    1.47468640300000    1.76198122060000
H         3.33516316010000    1.26043476820000    1.87741473700000
H         5.36698947560000    0.35015280090000    1.18709141820000
H         3.22277260970000   -1.62540593770000   -1.28288732180000
H         0.80031093990000   -1.37571234080000   -1.41725545990000
$end

$rem
BASIS = 6-31G*
GUI = 2
METHOD = B3LYP
PRINT_ORBITALS false
MOLDEN_FORMAT false
--------------------------------------------------------------
 ----------------------------------------------------------------
             Standard Nuclear Orientation (Angstroms)
    I     Atom           X                Y                Z
 ----------------------------------------------------------------
    1      C       3.6092273847    -5.2927397968    -0.2455818349
    2      O       2.4885083858    -4.4505055796    -0.1429607740
    3      C       2.6821702287    -3.0986925751    -0.1168085862
    4      C       3.9331095047    -2.4789913779    -0.1769123776
    5      C       4.0393628800    -1.1006972542    -0.1629254349
    6      C       1.5165680395    -2.3405206863    -0.0253074966
    7      C       1.6310523265    -0.9642484951     0.0148903402
    8      C       2.8923126414    -0.3299645030    -0.0709472774
    9      C       2.6416070527     1.0841128525    -0.0542622930
   10      C       3.4558188051     2.2040551789    -0.0878993636
   11      C       2.8848349520     3.4616471895    -0.0289597996
   12      C       1.4998949142     3.6120407065     0.0810335613
   13      O       0.8584385404     4.8146140842     0.1634256762
   14      C       1.6239102686     5.9933535329     0.1414864050
   15      C       0.6641595810     2.4974904775     0.1171679401
   16      C       1.2389928394     1.2441553639     0.0314678653
   17      N       0.6390610466    -0.0018598124     0.0743126775
   18      C      -0.7329836963    -0.2456044115     0.1650059643
   19      C      -1.2285617546    -1.1554247907     1.0974736018
   20      C      -2.5834977067    -1.3922976707     1.1803074289
   21      C      -3.4873528544    -0.7284011698     0.3460837138
   22      C      -4.9013372010    -1.0252551266     0.4945872127
   23      C      -5.9275756562    -0.5142097075    -0.1702616932
   24      F      -5.9075789329     0.3960678716    -1.1370906556
   25      F      -7.1915230331    -0.8690497163     0.0596971743
   26      C      -2.9816494590     0.1832452646    -0.5838658174
   27      C      -1.6258537532     0.4178604227    -0.6749351550
   28      H       3.2140112835    -6.3075412393    -0.2542192669
   29      H       4.2823478206    -5.1757964462     0.6102274978
   30      H       4.1648018491    -5.1146573217    -1.1721810099
   31      H       4.8322786734    -3.0698783606    -0.2452667733
   32      H       5.0097067322    -0.6324677280    -0.2271596819
   33      H       0.5657067881    -2.8472814806    -0.0028383980
   34      H       4.5279388200     2.0994936575    -0.1555406903
   35      H       3.5270811831     4.3270602229    -0.0591855302
   36      H       0.9076945663     6.8098511452     0.2215854644
   37      H       2.1825762826     6.0950233973    -0.7948182115
   38      H       2.3188175937     6.0394811778     0.9864911461
   39      H      -0.3979424523     2.6459159904     0.2234324776
   40      H      -0.5461526852    -1.6585415336     1.7650888698
   41      H      -2.9550736087    -2.0966675940     1.9100855470
   42      H      -5.1632359652    -1.7575744456     1.2448693681
   43      H      -3.6467236922     0.7079963669    -1.2496134176
   44      H      -1.2461742540     1.1070909026    -1.4133454446
 ----------------------------------------------------------------
 Molecular Point Group                 C1    NOp =  1
 Largest Abelian Subgroup              C1    NOp =  1
 Nuclear Repulsion Energy =        2278.09615247 hartrees
 There are       95 alpha and       95 beta electrons
 Requested basis set is 6-31G(d)
 There are 142 shells and 439 basis functions

 Total QAlloc Memory Limit   4000 MB
 Mega-Array Size       188 MB
 MEM_STATIC part       192 MB
 A cutoff of  1.0D-08 yielded   4198 shell pairs
 There are     44047 function pairs
 Smallest overlap matrix eigenvalue = 2.41E-04

 Scale SEOQF with 1.000000e-02/1.000000e-02/1.000000e-01

 Standard Electronic Orientation quadrupole field applied
 Nucleus-field energy     =     0.0000000123 hartrees
 Guess from superposition of atomic densities
 Warning:  Energy on first SCF cycle will be non-variational
 SAD guess density has 190.000000 electrons

 -----------------------------------------------------------------------
  General SCF calculation program by
  Eric Jon Sundstrom, Paul Horn, Yuezhi Mao, Dmitri Zuev, Alec White,
  David Stuck, Shaama M.S., Shane Yost, Joonho Lee, David Small,
  Daniel Levine, Susi Lehtola, Hugh Burton, Evgeny Epifanovsky,
  Bang C. Huynh
 -----------------------------------------------------------------------
 Exchange:     0.2000 Hartree-Fock + 0.0800 Slater + 0.7200 B88
 Correlation:  0.1900 VWN1RPA + 0.8100 LYP
 Using SG-1 standard quadrature grid
 A restricted SCF calculation will be
 performed using DIIS
 SCF converges when DIIS error is below 1.0e-05
 ---------------------------------------
  Cycle       Energy         DIIS error
 ---------------------------------------
    1   -1260.4172459708      3.97e-02  
    2   -1253.0686649596      3.83e-03  
    3   -1252.8775028966      4.80e-03  
    4   -1253.3966235318      1.14e-03  
    5   -1253.4261161832      3.81e-04  
    6   -1253.4288866148      2.03e-04  
    7   -1253.4299463553      4.56e-05  
    8   -1253.4299851585      2.20e-05  
    9   -1253.4299973232      4.46e-06  Convergence criterion met
 ---------------------------------------
 SCF time:   CPU 151.50s  wall 151.00s 
 SCF   energy in the final basis set =    -1253.4299973232
 Total energy in the final basis set =    -1253.4299973232
 
 --------------------------------------------------------------
 
                    Orbital Energies (a.u.)
 --------------------------------------------------------------
 
 Alpha MOs
 -- Occupied --
-24.7456 -24.7347 -19.1714 -19.1712 -14.3788 -10.3578 -10.2400 -10.2398
-10.2357 -10.2355 -10.2334 -10.2186 -10.2186 -10.2087 -10.2046 -10.1962
-10.1942 -10.1939 -10.1932 -10.1842 -10.1841 -10.1767 -10.1763 -10.1758
-10.1756 -10.1755 -10.1753  -1.2862  -1.2252  -1.0611  -1.0610  -0.9979
 -0.8775  -0.8480  -0.8442  -0.8101  -0.7812  -0.7619  -0.7533  -0.7516
 -0.7373  -0.7177  -0.7008  -0.6731  -0.6589  -0.6317  -0.6291  -0.6071
 -0.6057  -0.5762  -0.5746  -0.5713  -0.5451  -0.5369  -0.5324  -0.5198
 -0.5093  -0.4924  -0.4859  -0.4762  -0.4707  -0.4665  -0.4659  -0.4617
 -0.4581  -0.4490  -0.4417  -0.4388  -0.4345  -0.4313  -0.4297  -0.4196
 -0.4145  -0.4120  -0.4101  -0.3954  -0.3852  -0.3833  -0.3710  -0.3674
 -0.3585  -0.3551  -0.3473  -0.3447  -0.3231  -0.3218  -0.3193  -0.3024
 -0.2957  -0.2617  -0.2505  -0.2394  -0.2310  -0.1918  -0.1849
 -- Virtual --
 -0.0333  -0.0142  -0.0074   0.0114   0.0373   0.0602   0.0675   0.0846
  0.1009   0.1026   0.1103   0.1184   0.1215   0.1360   0.1398   0.1498
  0.1517   0.1553   0.1606   0.1621   0.1652   0.1690   0.1718   0.1728
  0.1775   0.1816   0.1838   0.1939   0.2068   0.2117   0.2214   0.2219
  0.2364   0.2689   0.2696   0.2706   0.2863   0.2925   0.2953   0.3124
  0.3150   0.3289   0.3332   0.3514   0.3703   0.3899   0.4099   0.4144
  0.4375   0.4413   0.4436   0.4552   0.4789   0.4957   0.4966   0.5070
  0.5091   0.5158   0.5252   0.5312   0.5345   0.5353   0.5368   0.5461
  0.5508   0.5522   0.5541   0.5601   0.5630   0.5690   0.5719   0.5749
  0.5828   0.5859   0.5890   0.5920   0.5942   0.6004   0.6043   0.6095
  0.6114   0.6137   0.6206   0.6248   0.6379   0.6433   0.6531   0.6549
  0.6633   0.6684   0.6690   0.6835   0.7042   0.7138   0.7246   0.7340
  0.7440   0.7478   0.7502   0.7771   0.7905   0.8046   0.8091   0.8142
  0.8272   0.8351   0.8392   0.8457   0.8474   0.8513   0.8583   0.8643
  0.8656   0.8686   0.8696   0.8735   0.8769   0.8816   0.8881   0.9034
  0.9147   0.9189   0.9294   0.9366   0.9422   0.9474   0.9500   0.9574
  0.9711   0.9857   0.9981   1.0032   1.0199   1.0344   1.0375   1.0465
  1.0602   1.0643   1.0692   1.0725   1.0825   1.1002   1.1011   1.1180
  1.1338   1.1474   1.1561   1.1593   1.1681   1.1812   1.2014   1.2155
  1.2166   1.2226   1.2336   1.2470   1.2526   1.2616   1.2700   1.2737
  1.2855   1.2975   1.3016   1.3374   1.3403   1.3550   1.3592   1.3691
  1.3849   1.3858   1.4022   1.4107   1.4245   1.4373   1.4441   1.4490
  1.4537   1.4632   1.4678   1.4720   1.4822   1.4844   1.4876   1.4898
  1.4978   1.5046   1.5128   1.5274   1.5348   1.5560   1.5950   1.5998
  1.6333   1.6475   1.6838   1.7142   1.7223   1.7269   1.7376   1.7695
  1.7735   1.7813   1.7821   1.7846   1.8025   1.8082   1.8215   1.8309
  1.8356   1.8397   1.8479   1.8597   1.8725   1.8919   1.8983   1.9052
  1.9071   1.9126   1.9389   1.9460   1.9514   1.9661   1.9704   1.9716
  1.9723   1.9867   1.9924   1.9975   2.0133   2.0145   2.0244   2.0309
  2.0347   2.0667   2.0742   2.0878   2.0998   2.1018   2.1085   2.1214
  2.1234   2.1273   2.1345   2.1509   2.1523   2.1556   2.1577   2.1891
  2.1954   2.2031   2.2256   2.2273   2.2357   2.2396   2.2570   2.2672
  2.2707   2.3012   2.3042   2.3122   2.3197   2.3411   2.3419   2.3531
  2.3558   2.3746   2.3925   2.4029   2.4050   2.4304   2.4909   2.4962
  2.5213   2.5239   2.5455   2.5462   2.5515   2.5736   2.5972   2.6009
  2.6140   2.6197   2.6378   2.6545   2.6662   2.6689   2.6865   2.7011
  2.7057   2.7378   2.7405   2.7524   2.7714   2.7858   2.8005   2.8105
  2.8307   2.8398   2.8864   2.8955   2.9135   2.9385   2.9852   2.9953
  2.9984   3.0206   3.0569   3.1140   3.1172   3.1480   3.2054   3.2923
  3.3170   3.3938   3.4185   3.5014   3.5824   4.0586   4.0628   4.0755
  4.1016   4.1119   4.1298   4.1456   4.1610   4.1691   4.1792   4.1981
  4.2557   4.2880   4.3024   4.3444   4.3500   4.3666   4.4154   4.4429
  4.5162   4.6032   4.6654   4.7214   4.7929   4.8377   4.9037   5.2878
 --------------------------------------------------------------
 
          Ground-State Mulliken Net Atomic Charges

     Atom                 Charge (a.u.)
  ----------------------------------------
      1 C                    -0.211786
      2 O                    -0.512223
      3 C                     0.385529
      4 C                    -0.217312
      5 C                    -0.207572
      6 C                    -0.251967
      7 C                     0.327377
      8 C                     0.066805
      9 C                     0.066250
     10 C                    -0.207671
     11 C                    -0.216859
     12 C                     0.385643
     13 O                    -0.511971
     14 C                    -0.211793
     15 C                    -0.251781
     16 C                     0.326642
     17 N                    -0.752990
     18 C                     0.292980
     19 C                    -0.160077
     20 C                    -0.208931
     21 C                     0.204511
     22 C                    -0.299329
     23 C                     0.543743
     24 F                    -0.234426
     25 F                    -0.248166
     26 C                    -0.208780
     27 C                    -0.160390
     28 H                     0.166325
     29 H                     0.148719
     30 H                     0.149632
     31 H                     0.123310
     32 H                     0.128765
     33 H                     0.144833
     34 H                     0.128709
     35 H                     0.123261
     36 H                     0.166595
     37 H                     0.148872
     38 H                     0.149398
     39 H                     0.145673
     40 H                     0.155352
     41 H                     0.134195
     42 H                     0.160530
     43 H                     0.144618
     44 H                     0.155758
  ----------------------------------------
  Sum of atomic charges =     0.000000

 -----------------------------------------------------------------
                    Cartesian Multipole Moments
 -----------------------------------------------------------------
    Charge (ESU x 10^10)
                 0.0000
    Dipole Moment (Debye)
         X       1.7665      Y      -0.1649      Z       0.4145
       Tot       1.8220
    Quadrupole Moments (Debye-Ang)
        XX    -142.5420     XY       0.4925     YY    -129.1014
        XZ      -3.3634     YZ      -3.1806     ZZ    -153.5083
    Octopole Moments (Debye-Ang^2)
       XXX      47.6078    XXY     -31.1279    XYY      61.3835
       YYY      43.6913    XXZ       4.0859    XYZ      13.5641
       YYZ      -0.6824    XZZ     -44.6436    YZZ      -6.6011
       ZZZ      -6.8240
    Hexadecapole Moments (Debye-Ang^3)
      XXXX   -9725.9184   XXXY    -143.6687   XXYY   -2325.9132
      XYYY     -46.9358   YYYY   -5525.4354   XXXZ     -49.2111
      XXYZ     -13.1267   XYYZ     -17.7571   YYYZ      29.0848
      XXZZ   -1678.4450   XYZZ       8.9341   YYZZ   -1191.6606
      XZZZ      50.6223   YZZZ     -12.5427   ZZZZ    -374.1508
 -----------------------------------------------------------------
Archival summary:
1\1\nia0005.scinet.local\SP\ProcedureUnspecified\6-31G*\2212217\rhickman\MonFeb708:07:012022MonFeb708:07:012022\0\\#,ProcedureUnspecified,6-31G*,\\0,1\N\C,1,1.38339\C,2,1.38161,1,129.406\H,3,1.07771,2,122.746,1,-0.677522,0\C,1,1.38359,2,108.315,3,-177.177,0\C,5,1.38153,1,129.395,2,-177.112,0\H,6,1.07767,5,122.761,1,-0.787996,0\C,3,1.39349,2,118.332,1,178.438,0\O,8,1.36587,3,114.907,2,179.596,0\C,6,1.39355,5,118.323,1,178.38,0\O,10,1.36544,6,114.904,5,179.662,0\C,1,1.39648,2,125.866,3,2.95169,0\C,12,1.39387,1,120.444,2,48.0241,0\H,13,1.07913,12,119.561,1,1.1964,0\C,13,1.37798,12,120.133,1,-179.918,0\H,15,1.08018,13,119.403,12,-179.743,0\C,12,1.39388,1,120.474,2,-132.011,0\H,17,1.07909,12,119.405,1,1.36827,0\C,17,1.37896,12,120.599,1,-179.731,0\H,19,1.07745,17,118.896,12,-179.736,0\C,19,1.39701,17,120.724,12,-0.342696,0\C,8,1.39732,3,120.688,2,-0.499587,0\H,22,1.07811,8,120.419,3,179.853,0\C,22,1.38245,8,120.699,3,-0.776298,0\H,24,1.07932,22,120.067,8,-178.932,0\C,24,1.385,22,119.461,8,0.834049,0\C,10,1.39742,6,120.686,5,-0.477434,0\H,27,1.07812,10,120.412,6,179.835,0\C,27,1.3824,10,120.705,6,-0.78827,0\H,29,1.07933,27,120.072,10,-178.938,0\C,29,1.38504,27,119.456,10,0.818988,0\C,11,1.40565,10,118.802,6,179.677,0\H,32,1.08906,11,105.63,10,-179.81,0\H,32,1.09501,11,111.646,10,-61.2171,0\H,32,1.09504,11,111.656,10,61.6067,0\C,9,1.40567,8,118.774,3,179.468,0\H,36,1.08908,9,105.638,8,-179.652,0\H,36,1.09497,9,111.646,8,-61.0581,0\H,36,1.09507,9,111.656,8,61.7613,0\C,21,1.45242,19,123.631,17,-179.898,0\H,40,1.08065,21,116.451,19,179.418,0\C,40,1.32528,21,128.591,19,-0.679738,0\F,42,1.32807,40,128.16,21,0.0416361,0\F,42,1.3328,40,123.034,21,-179.928,0\\\@

 Total job time:  152.44s(wall), 152.01s(cpu) 
 Mon Feb  7 08:07:01 2022

        *************************************************************
        *                                                           *
        *  Thank you very much for using Q-Chem.  Have a nice day.  *
        *                                                           *
        *************************************************************


