19
 energy: -35.165336009073 gnorm: 0.000113946865 xtb: 6.4.1 (23d549d)
C         0.40661371500000    2.84211877100000   -0.52040576720000
C         1.35646611040000    2.12177172960000    0.06112629520000
C         1.42263151140000    0.66176641060000    0.09816593210000
N         2.65625362750000    0.17114748800000    0.02123803110000
C         2.83962244420000   -1.13143684940000   -0.03246073350000
C         1.79383440280000   -2.04394688160000   -0.00801004520000
C         0.50855334380000   -1.55504449860000    0.13222245890000
C         0.29325217110000   -0.17769959520000    0.19829807150000
C        -1.03182968730000    0.37471699500000    0.44415609190000
C        -2.18275612090000   -0.16291889050000    0.07253434460000
F        -2.36087607850000   -1.27004552070000   -0.64062722780000
F        -3.37003881360000    0.37439945040000    0.34550013480000
H         0.45208853130000    3.91782401980000   -0.53636768890000
H        -0.43034244180000    2.39412883040000   -1.02976122660000
H         2.22316695040000    2.60562908630000    0.49066492470000
H         3.87009926460000   -1.45554464560000   -0.09523387110000
H         1.98106066410000   -3.10422517560000   -0.06860233070000
H        -0.32434459510000   -2.23673703170000    0.21250088510000
H        -1.08779063110000    1.30831463290000    0.98418214450000
