
Running Job 1 of 1 fragments/C058/conf-4/spe_input.inp
qchem fragments/C058/conf-4/spe_input.inp_261836.0 /gpfs/fs0/scratch/a/aspuru/rhickman/descriptor_computation/qchem261836/ 0
/scinet/niagara/software/commercial/qc52/exe/qcprog.exe_s fragments/C058/conf-4/spe_input.inp_261836.0 /gpfs/fs0/scratch/a/aspuru/rhickman/descriptor_computation/qchem261836/
                  Welcome to Q-Chem
     A Quantum Leap Into The Future Of Chemistry


 Q-Chem 5.2, Q-Chem, Inc., Pleasanton, CA (2019)

 License issued to: SRG Alan Aspuru-Guzik, University of Toronto

 Yihan Shao,  Zhengting Gan,  E. Epifanovsky,  A. T. B. Gilbert,  M. Wormit,  
 J. Kussmann,  A. W. Lange,  A. Behn,  Jia Deng,  Xintian Feng,  D. Ghosh,  
 M. Goldey,  P. R. Horn,  L. D. Jacobson,  I. Kaliman,  T. Kus,  A. Landau,  
 Jie Liu,  E. I. Proynov,  R. M. Richard,  R. P. Steele,  E. J. Sundstrom,  
 H. L. Woodcock III,  P. M. Zimmerman,  D. Zuev,  B. Albrecht,  E. Alguire,  
 S. A. Baeppler,  D. Barton,  Z. Benda,  Y. A. Bernard,  E. J. Berquist,  
 K. B. Bravaya,  H. Burton,  D. Casanova,  Chun-Min Chang,  Yunqing Chen,  
 A. Chien,  K. D. Closser,  M. P. Coons,  S. Coriani,  S. Dasgupta,  
 A. L. Dempwolff,  M. Diedenhofen,  Hainam Do,  R. G. Edgar,  Po-Tung Fang,  
 S. Faraji,  S. Fatehi,  Qingguo Feng,  K. D. Fenk,  J. Fosso-Tande,  
 J. Gayvert,  Qinghui Ge,  A. Ghysels,  G. Gidofalvi,  J. Gomes,  
 J. Gonthier,  A. Gunina,  D. Hait,  M. W. D. Hanson-Heine,  
 P. H. P. Harbach,  A. W. Hauser,  M. F. Herbst,  J. E. Herr,  
 E. G. Hohenstein,  Z. C. Holden,  Kerwin Hui,  B. C. Huynh,  T.-C. Jagau,  
 Hyunjun Ji,  B. Kaduk,  K. Khistyaev,  Jaehoon Kim,  P. Klunzinger,  K. Koh,  
 D. Kosenkov,  L. Koulias,  T. Kowalczyk,  C. M. Krauter,  A. Kunitsa,  
 Ka Un Lao,  A. Laurent,  K. V. Lawler,  Joonho Lee,  D. Lefrancois,  
 S. Lehtola,  D. S. Levine,  Yi-Pei Li,  You-Sheng Lin,  Fenglai Liu,  
 E. Livshits,  A. Luenser,  P. Manohar,  E. Mansoor,  S. F. Manzer,  
 Shan-Ping Mao,  Yuezhi Mao,  N. Mardirossian,  A. V. Marenich,  
 T. Markovich,  L. A. Martinez-Martinez,  S. A. Maurer,  N. J. Mayhall,  
 S. C. McKenzie,  J.-M. Mewes,  P. Morgante,  A. F. Morrison,  
 J. W. Mullinax,  K. Nanda,  T. S. Nguyen-Beck,  R. Olivares-Amaya,  
 J. A. Parkhill,  Zheng Pei,  T. M. Perrine,  F. Plasser,  P. Pokhilko,  
 S. Prager,  A. Prociuk,  E. Ramos,  D. R. Rehn,  F. Rob,  M. Scheurer,  
 M. Schneider,  N. Sergueev,  S. M. Sharada,  S. Sharma,  D. W. Small,  
 T. Stauch,  T. Stein,  Yu-Chuan Su,  A. J. W. Thom,  A. Tkatchenko,  
 T. Tsuchimochi,  N. M. Tubman,  L. Vogt,  M. L. Vidal,  O. Vydrov,  
 M. A. Watson,  J. Wenzel,  M. de Wergifosse,  T. A. Wesolowski,  A. White,  
 J. Witte,  A. Yamada,  Jun Yang,  K. Yao,  S. Yeganeh,  S. R. Yost,  
 Zhi-Qiang You,  A. Zech,  Igor Ying Zhang,  Xing Zhang,  Yan Zhao,  
 Ying Zhu,  B. R. Brooks,  G. K. L. Chan,  C. J. Cramer,  M. S. Gordon,  
 W. J. Hehre,  A. Klamt,  M. W. Schmidt,  C. D. Sherrill,  D. G. Truhlar,  
 A. Aspuru-Guzik,  R. Baer,  A. T. Bell,  N. A. Besley,  Jeng-Da Chai,  
 A. E. DePrince, III,  R. A. DiStasio Jr.,  A. Dreuw,  B. D. Dunietz,  
 T. R. Furlani,  Chao-Ping Hsu,  Yousung Jung,  Jing Kong,  D. S. Lambrecht,  
 WanZhen Liang,  C. Ochsenfeld,  V. A. Rassolov,  L. V. Slipchenko,  
 J. E. Subotnik,  T. Van Voorhis,  J. M. Herbert,  A. I. Krylov,  
 P. M. W. Gill,  M. Head-Gordon

 Contributors to earlier versions of Q-Chem not listed above: 
 R. D. Adamson,  B. Austin,  J. Baker,  G. J. O. Beran,  K. Brandhorst,  
 S. T. Brown,  E. F. C. Byrd,  A. K. Chakraborty,  C.-L. Cheng,  
 Siu Hung Chien,  D. M. Chipman,  D. L. Crittenden,  H. Dachsel,  
 R. J. Doerksen,  A. D. Dutoi,  L. Fusti-Molnar,  W. A. Goddard III,  
 A. Golubeva-Zadorozhnaya,  S. R. Gwaltney,  G. Hawkins,  A. Heyden,  
 S. Hirata,  G. Kedziora,  F. J. Keil,  C. Kelley,  Jihan Kim,  R. A. King,  
 R. Z. Khaliullin,  P. P. Korambath,  W. Kurlancheek,  A. M. Lee,  M. S. Lee,  
 S. V. Levchenko,  Ching Yeh Lin,  D. Liotard,  R. C. Lochan,  I. Lotan,  
 P. E. Maslen,  N. Nair,  D. P. O'Neill,  D. Neuhauser,  E. Neuscamman,  
 C. M. Oana,  R. Olson,  B. Peters,  R. Peverati,  P. A. Pieniazek,  
 Y. M. Rhee,  J. Ritchie,  M. A. Rohrdanz,  E. Rosta,  N. J. Russ,  
 H. F. Schaefer III,  N. E. Schultz,  N. Shenvi,  A. C. Simmonett,  A. Sodt,  
 D. Stuck,  K. S. Thanthiriwatte,  V. Vanovschi,  Tao Wang,  A. Warshel,  
 C. F. Williams,  Q. Wu,  X. Xu,  W. Zhang

 Please cite Q-Chem as follows:
 Y. Shao et al., Mol. Phys. 113, 184-215 (2015)
 DOI: 10.1080/00268976.2014.952696

 Q-Chem 5.2.1 for Intel X86 EM64T Linux

 Parts of Q-Chem use Armadillo 8.300.2 (Tropical Shenanigans).
 http://arma.sourceforge.net/

 Q-Chem begins on Mon Feb  7 09:15:57 2022  

Host: 
0

     Scratch files written to /gpfs/fs0/scratch/a/aspuru/rhickman/descriptor_computation/qchem261836//
 Jul1719 |scratch|qcdevops|jenkins|workspace|build_RNUM -1
Processing $rem in /scinet/niagara/software/commercial/qc52/config/preferences:
	 MEM_TOTAL  4000 
NAlpha2: 166
NElect   166
Mult     1

Checking the input file for inconsistencies... 	...done.

--------------------------------------------------------------
User input:
--------------------------------------------------------------
$molecule
0 1
C         1.04112120340000   -0.31210474360000   -3.13597822890000
C         1.41545014410000    0.50628211060000   -2.16178315270000
C         0.55707886820000    0.93259874440000   -1.05761386860000
C        -0.80429045720000    1.11974839240000   -1.27192511640000
C        -1.68380006260000    1.50592024070000   -0.27081689940000
C        -3.13234444950000    1.72212403060000   -0.62328882070000
C        -3.79888923190000    0.47835838830000   -1.22333962840000
C        -3.83133551010000   -0.69941013700000   -0.25380010380000
C        -4.38529447350000   -1.95992190750000   -0.91396020790000
C        -4.36265829040000   -3.18324397510000    0.00325021500000
C        -5.33304020170000   -3.07578767410000    1.17395381290000
C        -1.16507669520000    1.74833653160000    1.00427546410000
C        -1.96405157460000    2.19371747180000    2.15634994270000
C        -3.00037792910000    1.55399055320000    2.67307131070000
C         0.20505159900000    1.59926201720000    1.21246535720000
C         1.07599743680000    1.18800771490000    0.22007485260000
C         2.52773513520000    0.97885114820000    0.54228126580000
C         2.85762614460000   -0.51615438820000    0.62386272540000
C         4.32312076650000   -0.79453322320000    0.95865103850000
C         5.27147015170000   -0.46818556560000   -0.19353734250000
C         6.73855587120000   -0.74754958520000    0.13662304140000
C         7.05390192200000   -2.23197698150000    0.28012121290000
H         1.71121785410000   -0.58792447410000   -3.93266205370000
H         0.05918728410000   -0.75423500250000   -3.16697626830000
H         2.42633424750000    0.89294722360000   -2.15840455660000
H        -1.18571845550000    0.98085532180000   -2.27282586180000
H        -3.18690637110000    2.52860897160000   -1.36190351370000
H        -3.68688268980000    2.04252482900000    0.25870138300000
H        -3.26556014140000    0.17904746650000   -2.12774233240000
H        -4.82045919490000    0.73346206250000   -1.51613063230000
H        -4.45345323580000   -0.43485623580000    0.60248142010000
H        -2.81778433960000   -0.89510834340000    0.10549641250000
H        -3.78874839620000   -2.18019071670000   -1.80315401760000
H        -5.41101836040000   -1.77564278160000   -1.24338055480000
H        -3.34882386400000   -3.32741520730000    0.38399785050000
H        -4.62204312460000   -4.06545974420000   -0.58727861830000
H        -5.04992694730000   -2.26909356140000    1.84492662080000
H        -5.33960787520000   -4.00175178620000    1.74479541660000
H        -6.34281314160000   -2.88773755050000    0.81492774270000
H        -1.60299601640000    3.09960642910000    2.63093397130000
H        -3.35831955900000    0.62702965020000    2.25969273330000
H        -3.51910679510000    1.92373927960000    3.54201299510000
H         0.59632315440000    1.80130496850000    2.20095864120000
H         2.75819089470000    1.44650900730000    1.50209055330000
H         3.15137877190000    1.45349454640000   -0.21715893720000
H         2.60515072030000   -0.99313604930000   -0.32585329070000
H         2.22443258240000   -0.96290676700000    1.39475211250000
H         4.41963402910000   -1.85197280620000    1.21064062280000
H         4.61101897100000   -0.21540652840000    1.83968598750000
H         5.17617877310000    0.58887438930000   -0.45010519340000
H         4.98285121330000   -1.05079795340000   -1.07192695290000
H         7.00411900970000   -0.22904269870000    1.06093075270000
H         7.35900893950000   -0.33416357420000   -0.66250522890000
H         6.53050101990000   -2.66427821160000    1.12883437030000
H         8.12110080920000   -2.37741124780000    0.43244980060000
H         6.75937329690000   -2.77152129570000   -0.61760938560000
$end

$rem
BASIS = 6-31G*
GUI = 2
METHOD = B3LYP
PRINT_ORBITALS false
MOLDEN_FORMAT false
--------------------------------------------------------------
 ----------------------------------------------------------------
             Standard Nuclear Orientation (Angstroms)
    I     Atom           X                Y                Z
 ----------------------------------------------------------------
    1      C      -1.0736858108     1.0957125801    -2.9375379602
    2      C      -1.4272797848     0.0372756071    -2.2208666817
    3      C      -0.5497765273    -0.6650276080    -1.2857222252
    4      C       0.8099306106    -0.7700116887    -1.5585877303
    5      C       1.7067697409    -1.4052144345    -0.7117816424
    6      C       3.1519211880    -1.4992353975    -1.1264607091
    7      C       3.7994445797    -0.1307774196    -1.3700425467
    8      C       3.8357982555     0.7365089138    -0.1151755513
    9      C       4.3697573410     2.1361987254    -0.4106885732
   10      C       4.3499116502     3.0609739354     0.8069736120
   11      C       5.3376866011     2.6484050838     1.8922488828
   12      C       1.2082537030    -1.9939558426     0.4537935117
   13      C       2.0272085050    -2.7284294504     1.4304522012
   14      C       3.0653782013    -2.2424682351     2.0909589721
   15      C      -0.1599794874    -1.9240135558     0.7104329441
   16      C      -1.0483421300    -1.2669771851    -0.1212104229
   17      C      -2.4970572861    -1.1714772488     0.2624690602
   18      C      -2.8382568787     0.2398890268     0.7545597434
   19      C      -4.3011277430     0.3983438622     1.1694734415
   20      C      -5.2629796365     0.3889370859    -0.0171856767
   21      C      -6.7275153502     0.5495885648     0.3935659376
   22      C      -7.0532041295     1.9339883444     0.9421309941
   23      H      -1.7573137815     1.5712757514    -3.6204022435
   24      H      -0.0960257887     1.5411048827    -2.8572830905
   25      H      -2.4347424886    -0.3475558155    -2.3121446727
   26      H       1.1759302277    -0.3576022836    -2.4873200211
   27      H       3.2027359936    -2.0717233748    -2.0584596359
   28      H       3.7215910214    -2.0424271515    -0.3724746017
   29      H       3.2508392317     0.3985286292    -2.1516041096
   30      H       4.8188527252    -0.2836600287    -1.7331452684
   31      H       4.4722059017     0.2548742334     0.6286326376
   32      H       2.8258494557     0.8141350847     0.2955011454
   33      H       3.7588211000     2.5845716494    -1.1985780530
   34      H       5.3922059167     2.0615116729    -0.7896434618
   35      H       3.3404155063     3.0831676314     1.2241538195
   36      H       4.5934915156     4.0742782616     0.4780471001
   37      H       5.0708918976     1.6853972825     2.3195070906
   38      H       5.3446105388     3.3824963071     2.6949785650
   39      H       6.3437975161     2.5780144109     1.4839720920
   40      H       1.6805232828    -3.7339392954     1.6425494139
   41      H       3.4096427630    -1.2335047443     1.9435304802
   42      H       3.5994712211    -2.8299668823     2.8192744214
   43      H      -0.5354690139    -2.3938680175     1.6100318308
   44      H      -2.7099372389    -1.8869775619     1.0598328582
   45      H      -3.1274288832    -1.4272437087    -0.5908669408
   46      H      -2.6032949475     0.9618524819    -0.0307920992
   47      H      -2.1979406349     0.4658107502     1.6111499051
   48      H      -4.4028992048     1.3450155526     1.7028094633
   49      H      -4.5716281346    -0.4034482063     1.8611776436
   50      H      -5.1624980874    -0.5561294911    -0.5548062497
   51      H      -4.9917502139     1.1933648211    -0.7053985891
   52      H      -6.9755765173    -0.2055006983     1.1432483897
   53      H      -7.3557731104     0.3636441780    -0.4811756632
   54      H      -6.5214394819     2.1233751296     1.8708429444
   55      H      -8.1193119116     2.0193558080     1.1406131910
   56      H      -6.7759800467     2.7023707598     0.2234442216
 ----------------------------------------------------------------
 Molecular Point Group                 C1    NOp =  1
 Largest Abelian Subgroup              C1    NOp =  1
 Nuclear Repulsion Energy =        1749.99644511 hartrees
 There are       83 alpha and       83 beta electrons
 Requested basis set is 6-31G(d)
 There are 156 shells and 398 basis functions

 Total QAlloc Memory Limit   4000 MB
 Mega-Array Size       188 MB
 MEM_STATIC part       192 MB
 A cutoff of  1.0D-08 yielded   5402 shell pairs
 There are     38030 function pairs
 Smallest overlap matrix eigenvalue = 2.87E-04

 Scale SEOQF with 1.000000e-02/1.000000e-01/1.000000e-01

 Standard Electronic Orientation quadrupole field applied
 Nucleus-field energy     =     0.0000000078 hartrees
 Guess from superposition of atomic densities
 Warning:  Energy on first SCF cycle will be non-variational
 SAD guess density has 166.000001 electrons

 -----------------------------------------------------------------------
  General SCF calculation program by
  Eric Jon Sundstrom, Paul Horn, Yuezhi Mao, Dmitri Zuev, Alec White,
  David Stuck, Shaama M.S., Shane Yost, Joonho Lee, David Small,
  Daniel Levine, Susi Lehtola, Hugh Burton, Evgeny Epifanovsky,
  Bang C. Huynh
 -----------------------------------------------------------------------
 Exchange:     0.2000 Hartree-Fock + 0.0800 Slater + 0.7200 B88
 Correlation:  0.1900 VWN1RPA + 0.8100 LYP
 Using SG-1 standard quadrature grid
 A restricted SCF calculation will be
 performed using DIIS
 SCF converges when DIIS error is below 1.0e-05
 ---------------------------------------
  Cycle       Energy         DIIS error
 ---------------------------------------
    1    -863.2763779744      3.97e-02  
    2    -858.3515367652      4.50e-03  
    3    -858.3286931847      4.68e-03  
    4    -858.7947694575      3.97e-04  
    5    -858.7970965498      2.08e-04  
    6    -858.7978571499      9.73e-05  
    7    -858.7980563812      2.08e-05  
    8    -858.7980650292      4.81e-06  Convergence criterion met
 ---------------------------------------
 SCF time:   CPU 121.44s  wall 121.00s 
 SCF   energy in the final basis set =     -858.7980650292
 Total energy in the final basis set =     -858.7980650292
 
 --------------------------------------------------------------
 
                    Orbital Energies (a.u.)
 --------------------------------------------------------------
 
 Alpha MOs
 -- Occupied --
-10.1865 -10.1863 -10.1857 -10.1852 -10.1837 -10.1835 -10.1787 -10.1766
-10.1761 -10.1756 -10.1746 -10.1735 -10.1730 -10.1725 -10.1724 -10.1716
-10.1713 -10.1713 -10.1695 -10.1682 -10.1662 -10.1652  -0.8670  -0.8183
 -0.8045  -0.8006  -0.7827  -0.7707  -0.7597  -0.7394  -0.7130  -0.7082
 -0.6831  -0.6538  -0.6343  -0.6269  -0.6039  -0.5876  -0.5725  -0.5636
 -0.5611  -0.5586  -0.5337  -0.4925  -0.4827  -0.4707  -0.4630  -0.4571
 -0.4503  -0.4467  -0.4439  -0.4354  -0.4311  -0.4240  -0.4181  -0.4161
 -0.4072  -0.4030  -0.3962  -0.3940  -0.3788  -0.3747  -0.3660  -0.3624
 -0.3585  -0.3544  -0.3541  -0.3463  -0.3397  -0.3361  -0.3332  -0.3247
 -0.3230  -0.3197  -0.3172  -0.3119  -0.3096  -0.3019  -0.3012  -0.2856
 -0.2605  -0.2315  -0.2124
 -- Virtual --
 -0.0262   0.0078   0.0212   0.0611   0.0879   0.0906   0.1006   0.1036
  0.1100   0.1156   0.1223   0.1266   0.1299   0.1368   0.1447   0.1460
  0.1503   0.1549   0.1628   0.1659   0.1674   0.1720   0.1749   0.1792
  0.1829   0.1837   0.1867   0.1877   0.1941   0.1969   0.1992   0.2046
  0.2069   0.2124   0.2171   0.2205   0.2276   0.2303   0.2403   0.2451
  0.2478   0.2592   0.2616   0.2660   0.2684   0.2802   0.2829   0.2874
  0.2961   0.2996   0.3094   0.3227   0.3288   0.3450   0.3571   0.3757
  0.3964   0.3999   0.4191   0.4916   0.4969   0.5044   0.5072   0.5103
  0.5119   0.5188   0.5205   0.5305   0.5332   0.5379   0.5427   0.5454
  0.5549   0.5623   0.5686   0.5723   0.5740   0.5842   0.5878   0.5961
  0.6020   0.6102   0.6182   0.6252   0.6279   0.6315   0.6394   0.6542
  0.6635   0.6710   0.6750   0.6801   0.6870   0.6890   0.6924   0.6957
  0.7025   0.7116   0.7127   0.7182   0.7323   0.7446   0.7488   0.7526
  0.7708   0.7762   0.7870   0.8037   0.8144   0.8269   0.8373   0.8387
  0.8467   0.8512   0.8544   0.8612   0.8644   0.8707   0.8763   0.8784
  0.8846   0.8858   0.8922   0.8948   0.9031   0.9106   0.9116   0.9196
  0.9255   0.9298   0.9325   0.9371   0.9432   0.9494   0.9522   0.9571
  0.9702   0.9711   0.9752   0.9773   0.9814   0.9848   0.9967   0.9994
  1.0043   1.0124   1.0187   1.0248   1.0295   1.0406   1.0434   1.0556
  1.0713   1.0738   1.0804   1.1020   1.1310   1.1400   1.1478   1.1548
  1.1787   1.1976   1.2135   1.2259   1.2389   1.2506   1.2579   1.2940
  1.2979   1.3093   1.3316   1.3451   1.3764   1.3972   1.4027   1.4261
  1.4523   1.4623   1.4902   1.4969   1.5047   1.5204   1.5264   1.5360
  1.5585   1.5763   1.5980   1.6051   1.6096   1.6123   1.6233   1.6647
  1.6812   1.6881   1.7040   1.7143   1.7278   1.7446   1.7714   1.7852
  1.8019   1.8121   1.8191   1.8259   1.8324   1.8438   1.8551   1.8762
  1.8841   1.9086   1.9173   1.9240   1.9313   1.9363   1.9405   1.9474
  1.9691   1.9809   1.9841   1.9902   1.9964   2.0034   2.0053   2.0105
  2.0198   2.0266   2.0372   2.0414   2.0474   2.0578   2.0832   2.0879
  2.1023   2.1159   2.1485   2.1567   2.1750   2.1751   2.1925   2.2061
  2.2256   2.2403   2.2559   2.2585   2.2756   2.2777   2.2852   2.3106
  2.3178   2.3289   2.3333   2.3429   2.3581   2.3594   2.3686   2.3827
  2.3918   2.4031   2.4164   2.4231   2.4372   2.4427   2.4476   2.4562
  2.4742   2.4773   2.4783   2.5311   2.5583   2.6042   2.6058   2.6080
  2.6256   2.6372   2.6496   2.6635   2.6828   2.7192   2.7257   2.7467
  2.7519   2.7822   2.7928   2.8189   2.8426   2.8566   2.8824   2.9329
  2.9646   3.0542   3.0939   3.2354   3.4754   4.1277   4.1352   4.1486
  4.1493   4.1606   4.1800   4.2061   4.2221   4.2517   4.2853   4.3225
  4.3518   4.3682   4.4070   4.4386   4.4551   4.4844   4.4976   4.5442
  4.5821   4.5996   4.8241
 --------------------------------------------------------------
 
          Ground-State Mulliken Net Atomic Charges

     Atom                 Charge (a.u.)
  ----------------------------------------
      1 C                    -0.340987
      2 C                    -0.133599
      3 C                     0.120441
      4 C                    -0.263036
      5 C                     0.138620
      6 C                    -0.348973
      7 C                    -0.258450
      8 C                    -0.260555
      9 C                    -0.249034
     10 C                    -0.249961
     11 C                    -0.443333
     12 C                     0.081147
     13 C                    -0.151015
     14 C                    -0.329908
     15 C                    -0.255166
     16 C                     0.130570
     17 C                    -0.357903
     18 C                    -0.260555
     19 C                    -0.253133
     20 C                    -0.254731
     21 C                    -0.248838
     22 C                    -0.444443
     23 H                     0.140240
     24 H                     0.142923
     25 H                     0.134725
     26 H                     0.125697
     27 H                     0.142334
     28 H                     0.148302
     29 H                     0.131021
     30 H                     0.129003
     31 H                     0.135713
     32 H                     0.142327
     33 H                     0.125795
     34 H                     0.124942
     35 H                     0.131666
     36 H                     0.128323
     37 H                     0.145132
     38 H                     0.141940
     39 H                     0.140316
     40 H                     0.139063
     41 H                     0.153235
     42 H                     0.139923
     43 H                     0.117688
     44 H                     0.138232
     45 H                     0.146085
     46 H                     0.147355
     47 H                     0.134124
     48 H                     0.134097
     49 H                     0.125115
     50 H                     0.129437
     51 H                     0.128354
     52 H                     0.129671
     53 H                     0.128791
     54 H                     0.147832
     55 H                     0.142122
     56 H                     0.141320
  ----------------------------------------
  Sum of atomic charges =     0.000000

 -----------------------------------------------------------------
                    Cartesian Multipole Moments
 -----------------------------------------------------------------
    Charge (ESU x 10^10)
                 0.0000
    Dipole Moment (Debye)
         X      -0.2392      Y      -0.0283      Z       0.0877
       Tot       0.2563
    Quadrupole Moments (Debye-Ang)
        XX    -133.6058     XY       0.4565     YY    -137.8589
        XZ       0.5691     YZ      -3.8338     ZZ    -137.0681
    Octopole Moments (Debye-Ang^2)
       XXX       2.9015    XXY      -6.0120    XYY       1.8781
       YYY      -1.6481    XXZ      -4.0927    XYZ      -0.8620
       YYZ       8.4197    XZZ      -2.1562    YZZ       2.1348
       ZZZ       0.2897
    Hexadecapole Moments (Debye-Ang^3)
      XXXX  -11905.9016   XXXY      16.5232   XXYY   -2409.8516
      XYYY       7.7868   YYYY   -2412.9461   XXXZ      16.8607
      XXYZ     -32.5824   XYYZ      19.3913   YYYZ     -41.5579
      XXZZ   -2249.9764   XYZZ     -21.2326   YYZZ    -661.2483
      XZZZ       6.5688   YZZZ     -28.4542   ZZZZ   -1710.8744
 -----------------------------------------------------------------
Archival summary:
1\1\nia0231.scinet.local\SP\ProcedureUnspecified\6-31G*\2234\rhickman\MonFeb709:18:002022MonFeb709:18:002022\0\\#,ProcedureUnspecified,6-31G*,\\0,1\C\C,1,1.3874\H,2,1.08008,1,118.724\C,2,1.39078,1,123.147,3,178.392,0\C,1,1.39775,2,118.117,3,-176.789,0\C,5,1.39385,1,118.849,2,0.314504,0\H,6,1.08214,5,118.157,1,179.278,0\C,6,1.38294,5,122.935,1,-1.68392,0\C,4,1.4621,2,119.837,1,179.14,0\H,9,1.08232,4,116.219,2,146.223,0\C,9,1.32625,4,124.677,2,-34.2727,0\H,11,1.07695,9,121.723,4,179.415,0\H,11,1.07733,9,122.116,4,-1.82101,0\C,5,1.47105,1,124.429,2,178.486,0\H,14,1.08454,5,114.505,1,-125.243,0\C,14,1.32296,5,125.799,1,58.557,0\H,16,1.07623,14,121.803,5,-0.962121,0\H,16,1.07743,14,121.749,5,177.832,0\C,8,1.5017,6,119.754,5,-176.658,0\H,19,1.09131,8,110.033,6,-133.353,0\H,19,1.09227,8,109.443,6,-15.1448,0\C,1,1.50641,2,118.73,3,-0.309676,0\H,22,1.08999,1,110.003,2,-178.694,0\H,22,1.09496,1,108.147,2,-61.3235,0\C,19,1.53314,8,110.809,6,105.071,0\H,25,1.09234,19,109.257,8,58.1002,0\H,25,1.09307,19,108.145,8,-58.6308,0\C,25,1.52881,19,113.296,8,-179.636,0\H,28,1.09133,25,108.166,19,167.762,0\H,28,1.09293,25,109.424,19,50.6992,0\C,28,1.52755,25,113.019,19,-71.4075,0\H,31,1.09192,28,109.261,25,59.5456,0\H,31,1.09284,28,109.172,25,-58.0119,0\C,31,1.52951,28,113.182,25,-179.904,0\H,34,1.09257,31,109.213,28,-53.5804,0\H,34,1.09291,31,108.519,28,-170.516,0\C,34,1.52432,31,113.367,28,68.684,0\H,37,1.08681,34,111.177,31,-64.8345,0\H,37,1.08778,34,110.264,31,175.341,0\H,37,1.08801,34,110.441,31,55.6215,0\C,22,1.53339,1,113.15,2,58.4773,0\H,41,1.09177,22,109.523,1,-58.977,0\H,41,1.09289,22,108.773,1,-176.057,0\C,41,1.52584,22,112.748,1,62.5392,0\H,44,1.09098,41,108.885,22,64.1022,0\H,44,1.09301,41,109.108,22,-53.9285,0\C,44,1.52695,41,111.728,22,-174.916,0\H,47,1.09297,44,109.365,41,-61.0325,0\H,47,1.09318,44,108.665,41,56.0592,0\C,47,1.52915,44,113.311,41,176.839,0\H,50,1.09253,47,109.168,44,-54.1269,0\H,50,1.09284,47,108.553,44,-171.125,0\C,50,1.52438,47,113.256,44,68.0406,0\H,53,1.08679,50,111.14,47,-65.0087,0\H,53,1.0878,50,110.295,47,175.209,0\H,53,1.08807,50,110.459,47,55.4703,0\\\@

 Total job time:  122.23s(wall), 121.89s(cpu) 
 Mon Feb  7 09:18:00 2022

        *************************************************************
        *                                                           *
        *  Thank you very much for using Q-Chem.  Have a nice day.  *
        *                                                           *
        *************************************************************


