
Running Job 1 of 1 fragments/A029/conf-1/spe_input.inp
qchem fragments/A029/conf-1/spe_input.inp_79675.0 /gpfs/fs0/scratch/a/aspuru/rhickman/descriptor_computation/qchem79675/ 0
/scinet/niagara/software/commercial/qc52/exe/qcprog.exe_s fragments/A029/conf-1/spe_input.inp_79675.0 /gpfs/fs0/scratch/a/aspuru/rhickman/descriptor_computation/qchem79675/
                  Welcome to Q-Chem
     A Quantum Leap Into The Future Of Chemistry


 Q-Chem 5.2, Q-Chem, Inc., Pleasanton, CA (2019)

 License issued to: SRG Alan Aspuru-Guzik, University of Toronto

 Yihan Shao,  Zhengting Gan,  E. Epifanovsky,  A. T. B. Gilbert,  M. Wormit,  
 J. Kussmann,  A. W. Lange,  A. Behn,  Jia Deng,  Xintian Feng,  D. Ghosh,  
 M. Goldey,  P. R. Horn,  L. D. Jacobson,  I. Kaliman,  T. Kus,  A. Landau,  
 Jie Liu,  E. I. Proynov,  R. M. Richard,  R. P. Steele,  E. J. Sundstrom,  
 H. L. Woodcock III,  P. M. Zimmerman,  D. Zuev,  B. Albrecht,  E. Alguire,  
 S. A. Baeppler,  D. Barton,  Z. Benda,  Y. A. Bernard,  E. J. Berquist,  
 K. B. Bravaya,  H. Burton,  D. Casanova,  Chun-Min Chang,  Yunqing Chen,  
 A. Chien,  K. D. Closser,  M. P. Coons,  S. Coriani,  S. Dasgupta,  
 A. L. Dempwolff,  M. Diedenhofen,  Hainam Do,  R. G. Edgar,  Po-Tung Fang,  
 S. Faraji,  S. Fatehi,  Qingguo Feng,  K. D. Fenk,  J. Fosso-Tande,  
 J. Gayvert,  Qinghui Ge,  A. Ghysels,  G. Gidofalvi,  J. Gomes,  
 J. Gonthier,  A. Gunina,  D. Hait,  M. W. D. Hanson-Heine,  
 P. H. P. Harbach,  A. W. Hauser,  M. F. Herbst,  J. E. Herr,  
 E. G. Hohenstein,  Z. C. Holden,  Kerwin Hui,  B. C. Huynh,  T.-C. Jagau,  
 Hyunjun Ji,  B. Kaduk,  K. Khistyaev,  Jaehoon Kim,  P. Klunzinger,  K. Koh,  
 D. Kosenkov,  L. Koulias,  T. Kowalczyk,  C. M. Krauter,  A. Kunitsa,  
 Ka Un Lao,  A. Laurent,  K. V. Lawler,  Joonho Lee,  D. Lefrancois,  
 S. Lehtola,  D. S. Levine,  Yi-Pei Li,  You-Sheng Lin,  Fenglai Liu,  
 E. Livshits,  A. Luenser,  P. Manohar,  E. Mansoor,  S. F. Manzer,  
 Shan-Ping Mao,  Yuezhi Mao,  N. Mardirossian,  A. V. Marenich,  
 T. Markovich,  L. A. Martinez-Martinez,  S. A. Maurer,  N. J. Mayhall,  
 S. C. McKenzie,  J.-M. Mewes,  P. Morgante,  A. F. Morrison,  
 J. W. Mullinax,  K. Nanda,  T. S. Nguyen-Beck,  R. Olivares-Amaya,  
 J. A. Parkhill,  Zheng Pei,  T. M. Perrine,  F. Plasser,  P. Pokhilko,  
 S. Prager,  A. Prociuk,  E. Ramos,  D. R. Rehn,  F. Rob,  M. Scheurer,  
 M. Schneider,  N. Sergueev,  S. M. Sharada,  S. Sharma,  D. W. Small,  
 T. Stauch,  T. Stein,  Yu-Chuan Su,  A. J. W. Thom,  A. Tkatchenko,  
 T. Tsuchimochi,  N. M. Tubman,  L. Vogt,  M. L. Vidal,  O. Vydrov,  
 M. A. Watson,  J. Wenzel,  M. de Wergifosse,  T. A. Wesolowski,  A. White,  
 J. Witte,  A. Yamada,  Jun Yang,  K. Yao,  S. Yeganeh,  S. R. Yost,  
 Zhi-Qiang You,  A. Zech,  Igor Ying Zhang,  Xing Zhang,  Yan Zhao,  
 Ying Zhu,  B. R. Brooks,  G. K. L. Chan,  C. J. Cramer,  M. S. Gordon,  
 W. J. Hehre,  A. Klamt,  M. W. Schmidt,  C. D. Sherrill,  D. G. Truhlar,  
 A. Aspuru-Guzik,  R. Baer,  A. T. Bell,  N. A. Besley,  Jeng-Da Chai,  
 A. E. DePrince, III,  R. A. DiStasio Jr.,  A. Dreuw,  B. D. Dunietz,  
 T. R. Furlani,  Chao-Ping Hsu,  Yousung Jung,  Jing Kong,  D. S. Lambrecht,  
 WanZhen Liang,  C. Ochsenfeld,  V. A. Rassolov,  L. V. Slipchenko,  
 J. E. Subotnik,  T. Van Voorhis,  J. M. Herbert,  A. I. Krylov,  
 P. M. W. Gill,  M. Head-Gordon

 Contributors to earlier versions of Q-Chem not listed above: 
 R. D. Adamson,  B. Austin,  J. Baker,  G. J. O. Beran,  K. Brandhorst,  
 S. T. Brown,  E. F. C. Byrd,  A. K. Chakraborty,  C.-L. Cheng,  
 Siu Hung Chien,  D. M. Chipman,  D. L. Crittenden,  H. Dachsel,  
 R. J. Doerksen,  A. D. Dutoi,  L. Fusti-Molnar,  W. A. Goddard III,  
 A. Golubeva-Zadorozhnaya,  S. R. Gwaltney,  G. Hawkins,  A. Heyden,  
 S. Hirata,  G. Kedziora,  F. J. Keil,  C. Kelley,  Jihan Kim,  R. A. King,  
 R. Z. Khaliullin,  P. P. Korambath,  W. Kurlancheek,  A. M. Lee,  M. S. Lee,  
 S. V. Levchenko,  Ching Yeh Lin,  D. Liotard,  R. C. Lochan,  I. Lotan,  
 P. E. Maslen,  N. Nair,  D. P. O'Neill,  D. Neuhauser,  E. Neuscamman,  
 C. M. Oana,  R. Olson,  B. Peters,  R. Peverati,  P. A. Pieniazek,  
 Y. M. Rhee,  J. Ritchie,  M. A. Rohrdanz,  E. Rosta,  N. J. Russ,  
 H. F. Schaefer III,  N. E. Schultz,  N. Shenvi,  A. C. Simmonett,  A. Sodt,  
 D. Stuck,  K. S. Thanthiriwatte,  V. Vanovschi,  Tao Wang,  A. Warshel,  
 C. F. Williams,  Q. Wu,  X. Xu,  W. Zhang

 Please cite Q-Chem as follows:
 Y. Shao et al., Mol. Phys. 113, 184-215 (2015)
 DOI: 10.1080/00268976.2014.952696

 Q-Chem 5.2.1 for Intel X86 EM64T Linux

 Parts of Q-Chem use Armadillo 8.300.2 (Tropical Shenanigans).
 http://arma.sourceforge.net/

 Q-Chem begins on Mon Feb  7 14:28:24 2022  

Host: 
0

     Scratch files written to /gpfs/fs0/scratch/a/aspuru/rhickman/descriptor_computation/qchem79675//
 Jul1719 |scratch|qcdevops|jenkins|workspace|build_RNUM -1
Processing $rem in /scinet/niagara/software/commercial/qc52/config/preferences:
	 MEM_TOTAL  4000 
NAlpha2: 174
NElect   174
Mult     1

Checking the input file for inconsistencies... 	...done.

--------------------------------------------------------------
User input:
--------------------------------------------------------------
$molecule
0 1
C         1.29661971600000    4.78597429750000   -0.67076778040000
O         2.57764520700000    4.22625672240000   -0.52819704560000
C         2.68623049490000    2.87851733100000   -0.35178706120000
C         4.00040940940000    2.40417481470000   -0.20947222670000
C         4.25976561140000    1.06982154150000   -0.00318277730000
C         1.60827936320000    2.00636484050000   -0.30760838530000
C         1.87915500610000    0.65628297310000   -0.12647344060000
C         3.19452133040000    0.17769132860000    0.04567883180000
C         3.09210854780000   -1.23753953090000    0.26440745330000
C         4.02759653200000   -2.24211317150000    0.47295287080000
C         3.58158274260000   -3.53971896980000    0.62817598500000
C         2.22445040450000   -3.84360210950000    0.56072420100000
C         1.27450740590000   -2.86057699350000    0.35328143170000
C         1.71484055490000   -1.55241260630000    0.22406803680000
N         0.99089603000000   -0.39645540170000   -0.01656295410000
C        -0.39766823520000   -0.31304975720000   -0.13543959750000
C        -0.97559012980000    0.35676946170000   -1.21297971500000
C        -2.34675276100000    0.43756558990000   -1.32335703330000
C        -3.18564521040000   -0.15078954490000   -0.37255765240000
C        -4.62109873110000   -0.03076063120000   -0.55835123200000
C        -5.59545118540000   -0.51283974350000    0.19989723370000
F        -5.48921156160000   -1.22232844450000    1.31721705610000
F        -6.88633178660000   -0.33650535520000   -0.07708210590000
C        -2.59787614250000   -0.82266490560000    0.70215485430000
C        -1.22607595690000   -0.89917804980000    0.82025458790000
H         1.45419419490000    5.85607455970000   -0.79600085920000
H         0.67959063500000    4.61365353810000    0.21749840300000
H         0.78027202820000    4.39190125310000   -1.55268403640000
H         4.79845044020000    3.12757030960000   -0.25531059690000
H         5.27275653720000    0.72051561930000    0.12310974890000
H         0.59081235060000    2.35229482630000   -0.39170803320000
H         5.08092240320000   -2.00868465240000    0.50708223300000
H         4.29267329520000   -4.33518360180000    0.79438089290000
H         1.90600675020000   -4.86982138720000    0.66901572950000
H         0.22670073200000   -3.11076292430000    0.28275572350000
H        -0.34145913460000    0.79191295690000   -1.97056874130000
H        -2.78185896690000    0.95488925200000   -2.16598842370000
H        -4.94985545890000    0.52032445640000   -1.42785364280000
H        -3.21183355120000   -1.28220933820000    1.45893779270000
H        -0.78435072770000   -1.40104707080000    1.66759721600000
$end

$rem
BASIS = 6-31G*
GUI = 2
METHOD = B3LYP
PRINT_ORBITALS false
MOLDEN_FORMAT false
--------------------------------------------------------------
 ----------------------------------------------------------------
             Standard Nuclear Orientation (Angstroms)
    I     Atom           X                Y                Z
 ----------------------------------------------------------------
    1      C      -1.8344184121    -4.6047134970     0.2344221698
    2      O      -3.0308534878    -3.8680957322     0.2583776530
    3      C      -2.9632170756    -2.5085724368     0.1781626945
    4      C      -4.2034639510    -1.8508833516     0.2175747427
    5      C      -4.2865868943    -0.4794087812     0.1678986590
    6      C      -1.7819120746    -1.7896390107     0.0675571445
    7      C      -1.8748366985    -0.4060661642    -0.0098749129
    8      C      -3.1152516299     0.2614917192     0.0580382987
    9      C      -2.8290781333     1.6675032719     0.0085891614
   10      C      -3.6248742325     2.8052355755     0.0170113394
   11      C      -3.0140211017     4.0406022191    -0.0697701772
   12      C      -1.6303687690     4.1492991378    -0.1810989296
   13      C      -0.8174621571     3.0308990092    -0.1923494551
   14      C      -1.4236283323     1.7893804495    -0.0779917649
   15      N      -0.8574919985     0.5254399740    -0.0914131582
   16      C       0.5069395631     0.2432957171    -0.1804075878
   17      C       0.9774642159    -0.6848502210    -1.1082523355
   18      C       2.3251061937    -0.9606248173    -1.1895394784
   19      C       3.2471531313    -0.3178377972    -0.3585304167
   20      C       4.6523493363    -0.6541930947    -0.5059812353
   21      C       5.6921139854    -0.1683361381     0.1569940310
   22      F       5.6950310906     0.7451803299     1.1206038137
   23      F       6.9453134257    -0.5579688484    -0.0707374151
   24      C       2.7670827271     0.6130492631     0.5660655153
   25      C       1.4183805801     0.8861782899     0.6557349687
   26      H      -2.1296443844    -5.6500236551     0.3105530448
   27      H      -1.1866254498    -4.3502435034     1.0800257672
   28      H      -1.2856827773    -4.4522346545    -0.7011654462
   29      H      -5.0881762817    -2.4612729075     0.3011233334
   30      H      -5.2444212153     0.0147517253     0.2176364953
   31      H      -0.8185487153    -2.2732002575     0.0586697269
   32      H      -4.6987567509     2.7198292020     0.0850640081
   33      H      -3.6147287664     4.9378894977    -0.0617909915
   34      H      -1.1815001598     5.1280042776    -0.2642412360
   35      H       0.2525251887     3.1265319446    -0.2993406837
   36      H       0.2810988539    -1.1686556475    -1.7763995537
   37      H       2.6771974610    -1.6779623335    -1.9164696464
   38      H       4.8942376270    -1.3957483111    -1.2539091182
   39      H       3.4465547205     1.1230643407     1.2286722101
   40      H       1.0578202678     1.5901969337     1.3901307966
 ----------------------------------------------------------------
 Molecular Point Group                 C1    NOp =  1
 Largest Abelian Subgroup              C1    NOp =  1
 Nuclear Repulsion Energy =        2004.35368619 hartrees
 There are       87 alpha and       87 beta electrons
 Requested basis set is 6-31G(d)
 There are 130 shells and 405 basis functions

 Total QAlloc Memory Limit   4000 MB
 Mega-Array Size       188 MB
 MEM_STATIC part       192 MB
 A cutoff of  1.0D-08 yielded   3924 shell pairs
 There are     41051 function pairs
 Smallest overlap matrix eigenvalue = 2.56E-04

 Scale SEOQF with 1.000000e-02/1.000000e-02/1.000000e-01

 Standard Electronic Orientation quadrupole field applied
 Nucleus-field energy     =     0.0000000080 hartrees
 Guess from superposition of atomic densities
 Warning:  Energy on first SCF cycle will be non-variational
 SAD guess density has 174.000000 electrons

 -----------------------------------------------------------------------
  General SCF calculation program by
  Eric Jon Sundstrom, Paul Horn, Yuezhi Mao, Dmitri Zuev, Alec White,
  David Stuck, Shaama M.S., Shane Yost, Joonho Lee, David Small,
  Daniel Levine, Susi Lehtola, Hugh Burton, Evgeny Epifanovsky,
  Bang C. Huynh
 -----------------------------------------------------------------------
 Exchange:     0.2000 Hartree-Fock + 0.0800 Slater + 0.7200 B88
 Correlation:  0.1900 VWN1RPA + 0.8100 LYP
 Using SG-1 standard quadrature grid
 A restricted SCF calculation will be
 performed using DIIS
 SCF converges when DIIS error is below 1.0e-05
 ---------------------------------------
  Cycle       Energy         DIIS error
 ---------------------------------------
    1   -1145.4736451328      4.14e-02  
    2   -1138.5629383879      4.02e-03  
    3   -1138.3502774157      5.20e-03  
    4   -1138.8718532563      1.30e-03  
    5   -1138.9042002458      4.51e-04  
    6   -1138.9078299668      2.21e-04  
    7   -1138.9088851480      4.57e-05  
    8   -1138.9089178399      2.21e-05  
    9   -1138.9089279436      4.39e-06  Convergence criterion met
 ---------------------------------------
 SCF time:   CPU 123.01s  wall 124.00s 
 SCF   energy in the final basis set =    -1138.9089279436
 Total energy in the final basis set =    -1138.9089279436
 
 --------------------------------------------------------------
 
                    Orbital Energies (a.u.)
 --------------------------------------------------------------
 
 Alpha MOs
 -- Occupied --
-24.7502 -24.7394 -19.1758 -14.3825 -10.3627 -10.2439 -10.2391 -10.2386
-10.2222 -10.2175 -10.2143 -10.2093 -10.2019 -10.2000 -10.1994 -10.1986
-10.1859 -10.1831 -10.1821 -10.1813 -10.1805 -10.1795 -10.1778 -10.1746
-10.1739  -1.2910  -1.2299  -1.0659  -1.0013  -0.8823  -0.8509  -0.8460
 -0.8142  -0.7829  -0.7667  -0.7529  -0.7519  -0.7333  -0.7172  -0.6913
 -0.6583  -0.6338  -0.6322  -0.6118  -0.6068  -0.5836  -0.5772  -0.5735
 -0.5467  -0.5399  -0.5277  -0.5245  -0.5084  -0.4893  -0.4870  -0.4704
 -0.4669  -0.4645  -0.4571  -0.4490  -0.4463  -0.4425  -0.4387  -0.4362
 -0.4332  -0.4318  -0.4185  -0.4140  -0.4080  -0.3891  -0.3852  -0.3826
 -0.3681  -0.3620  -0.3590  -0.3467  -0.3383  -0.3337  -0.3280  -0.3182
 -0.2988  -0.2675  -0.2611  -0.2513  -0.2351  -0.1967  -0.1940
 -- Virtual --
 -0.0386  -0.0167  -0.0132   0.0101   0.0315   0.0543   0.0619   0.0789
  0.0995   0.1050   0.1126   0.1168   0.1344   0.1348   0.1467   0.1520
  0.1561   0.1592   0.1646   0.1665   0.1704   0.1778   0.1795   0.1879
  0.1917   0.2019   0.2083   0.2139   0.2156   0.2349   0.2661   0.2713
  0.2734   0.2842   0.2936   0.3066   0.3135   0.3216   0.3261   0.3475
  0.3565   0.3710   0.4031   0.4048   0.4188   0.4279   0.4370   0.4611
  0.4744   0.4908   0.4927   0.5094   0.5176   0.5221   0.5240   0.5281
  0.5323   0.5368   0.5416   0.5514   0.5532   0.5558   0.5614   0.5660
  0.5724   0.5764   0.5800   0.5813   0.5842   0.5916   0.5933   0.5963
  0.5992   0.6040   0.6101   0.6152   0.6236   0.6249   0.6272   0.6378
  0.6381   0.6473   0.6521   0.6546   0.6650   0.6667   0.6974   0.7143
  0.7158   0.7269   0.7437   0.7570   0.7718   0.7914   0.7945   0.8046
  0.8150   0.8218   0.8314   0.8373   0.8403   0.8445   0.8515   0.8520
  0.8567   0.8647   0.8704   0.8742   0.8767   0.8827   0.8982   0.9089
  0.9149   0.9267   0.9321   0.9424   0.9488   0.9543   0.9691   0.9770
  0.9885   1.0031   1.0044   1.0130   1.0232   1.0411   1.0554   1.0593
  1.0685   1.0810   1.0975   1.1126   1.1295   1.1415   1.1537   1.1550
  1.1632   1.1681   1.1829   1.2005   1.2023   1.2101   1.2201   1.2209
  1.2324   1.2488   1.2636   1.2752   1.2816   1.2907   1.3251   1.3350
  1.3364   1.3515   1.3634   1.3809   1.3882   1.3974   1.4104   1.4216
  1.4368   1.4396   1.4462   1.4531   1.4583   1.4629   1.4706   1.4762
  1.4829   1.4886   1.4979   1.5008   1.5064   1.5136   1.5282   1.5517
  1.5971   1.6159   1.6306   1.6514   1.6747   1.7043   1.7191   1.7384
  1.7619   1.7639   1.7768   1.7772   1.7857   1.7926   1.8117   1.8293
  1.8315   1.8383   1.8559   1.8595   1.8673   1.8791   1.8830   1.8996
  1.9022   1.9205   1.9344   1.9390   1.9550   1.9571   1.9644   1.9690
  1.9766   1.9876   1.9984   2.0080   2.0112   2.0213   2.0277   2.0327
  2.0655   2.0724   2.0846   2.1023   2.1065   2.1168   2.1272   2.1333
  2.1427   2.1493   2.1519   2.1557   2.1756   2.2043   2.2176   2.2281
  2.2317   2.2404   2.2526   2.2588   2.2758   2.2864   2.2945   2.3015
  2.3149   2.3172   2.3381   2.3469   2.3489   2.3730   2.3920   2.4106
  2.4240   2.4639   2.4846   2.5166   2.5243   2.5361   2.5496   2.5762
  2.6046   2.6055   2.6185   2.6289   2.6464   2.6598   2.6662   2.6739
  2.6879   2.6984   2.7014   2.7065   2.7318   2.7648   2.7669   2.7681
  2.8017   2.8252   2.8318   2.8461   2.8861   2.9008   2.9113   2.9415
  2.9793   2.9875   3.0116   3.0524   3.1192   3.1454   3.1900   3.2880
  3.3048   3.3791   3.4071   3.4930   3.5737   4.0581   4.0703   4.0996
  4.1071   4.1126   4.1249   4.1525   4.1617   4.1697   4.1757   4.2322
  4.2830   4.3004   4.3441   4.3752   4.3932   4.4396   4.4715   4.5188
  4.6119   4.7175   4.7828   4.8263   4.8878   5.2856
 --------------------------------------------------------------
 
          Ground-State Mulliken Net Atomic Charges

     Atom                 Charge (a.u.)
  ----------------------------------------
      1 C                    -0.210812
      2 O                    -0.507998
      3 C                     0.381883
      4 C                    -0.192850
      5 C                    -0.192807
      6 C                    -0.267803
      7 C                     0.314671
      8 C                     0.057776
      9 C                     0.061473
     10 C                    -0.198098
     11 C                    -0.144759
     12 C                    -0.140693
     13 C                    -0.179030
     14 C                     0.310637
     15 N                    -0.738443
     16 C                     0.289189
     17 C                    -0.162455
     18 C                    -0.209293
     19 C                     0.204325
     20 C                    -0.300126
     21 C                     0.545025
     22 F                    -0.233732
     23 F                    -0.246648
     24 C                    -0.208883
     25 C                    -0.160407
     26 H                     0.168817
     27 H                     0.151485
     28 H                     0.146299
     29 H                     0.131187
     30 H                     0.132119
     31 H                     0.141602
     32 H                     0.126741
     33 H                     0.120460
     34 H                     0.123133
     35 H                     0.137245
     36 H                     0.153951
     37 H                     0.134143
     38 H                     0.160929
     39 H                     0.145787
     40 H                     0.155959
  ----------------------------------------
  Sum of atomic charges =     0.000000

 -----------------------------------------------------------------
                    Cartesian Multipole Moments
 -----------------------------------------------------------------
    Charge (ESU x 10^10)
                 0.0000
    Dipole Moment (Debye)
         X       1.4954      Y      -1.3068      Z      -0.5350
       Tot       2.0567
    Quadrupole Moments (Debye-Ang)
        XX    -144.3992     XY      -4.8130     YY    -129.3213
        XZ      -2.3881     YZ       3.2458     ZZ    -142.1491
    Octopole Moments (Debye-Ang^2)
       XXX       8.7014    XXY      16.0170    XYY      37.1180
       YYY     -39.0661    XXZ      -5.1665    XYZ       6.6464
       YYZ       1.2242    XZZ      47.3848    YZZ     -16.4430
       ZZZ       8.3974
    Hexadecapole Moments (Debye-Ang^3)
      XXXX   -9164.9862   XXXY     -85.0521   XXYY   -2210.7861
      XYYY      15.6724   YYYY   -3803.8389   XXXZ     -32.0739
      XXYZ      27.8900   XYYZ       5.9873   YYYZ     -10.8418
      XXZZ   -1588.1381   XYZZ      19.5207   YYZZ    -791.0235
      XZZZ      45.8425   YZZZ      20.8132   ZZZZ    -359.9569
 -----------------------------------------------------------------
Archival summary:
1\1\nia1977.scinet.local\SP\ProcedureUnspecified\6-31G*\2112115\rhickman\MonFeb714:30:312022MonFeb714:30:312022\0\\#,ProcedureUnspecified,6-31G*,\\0,1\N\C,1,1.38179\C,1,1.385,2,108.281\C,3,1.38632,1,129.623,2,-177.136,0\H,4,1.07957,3,121.391,1,-0.871378,0\C,4,1.38267,3,117.817,1,178.378,0\H,6,1.07993,4,119.213,3,179.724,0\C,2,1.38885,1,128.726,3,-176.909,0\H,8,1.07795,2,120.413,1,-0.652101,0\C,8,1.38729,2,117.628,1,178.284,0\O,10,1.36357,8,124.306,2,179.748,0\C,6,1.39237,4,121.45,3,-0.50716,0\H,12,1.07983,6,119.244,4,179.824,0\C,12,1.38087,6,120.962,4,-0.807681,0\H,14,1.07942,12,120.987,6,-178.866,0\C,14,1.38845,12,118.63,6,0.823045,0\C,1,1.39614,2,125.949,3,-179.641,0\C,17,1.39397,1,120.501,2,-131.144,0\H,18,1.07934,17,119.375,1,1.35099,0\C,18,1.379,17,120.606,1,-179.742,0\H,20,1.07743,18,118.884,17,-179.757,0\C,17,1.39418,1,120.45,2,48.9242,0\H,22,1.07954,17,119.508,1,1.46943,0\C,22,1.37797,17,120.169,1,-179.887,0\H,24,1.08026,22,119.429,17,-179.673,0\C,20,1.3971,18,120.735,17,-0.347192,0\C,10,1.40439,8,120.766,2,-0.367555,0\H,27,1.07809,10,117.5,8,179.809,0\C,27,1.37489,10,121.3,8,-0.961226,0\H,29,1.07894,27,120.589,10,-178.845,0\C,29,1.39033,27,118.914,10,0.890478,0\C,11,1.40522,10,118.647,8,0.276922,0\H,32,1.08887,11,105.735,10,179.937,0\H,32,1.09519,11,111.632,10,61.2553,0\H,32,1.0953,11,111.601,10,-61.4161,0\C,26,1.4524,20,123.638,18,-179.954,0\H,36,1.08065,26,116.471,20,179.602,0\C,36,1.32541,26,128.559,20,-0.566858,0\F,38,1.3278,36,128.092,26,0.121856,0\F,38,1.33199,36,123.048,26,-179.929,0\\\@

 Total job time:  126.89s(wall), 123.44s(cpu) 
 Mon Feb  7 14:30:31 2022

        *************************************************************
        *                                                           *
        *  Thank you very much for using Q-Chem.  Have a nice day.  *
        *                                                           *
        *************************************************************


