
Running Job 1 of 1 fragments/B011/conf-1/spe_input.inp
qchem fragments/B011/conf-1/spe_input.inp_51058.0 /gpfs/fs0/scratch/a/aspuru/rhickman/descriptor_computation/qchem51058/ 0
/scinet/niagara/software/commercial/qc52/exe/qcprog.exe_s fragments/B011/conf-1/spe_input.inp_51058.0 /gpfs/fs0/scratch/a/aspuru/rhickman/descriptor_computation/qchem51058/
                  Welcome to Q-Chem
     A Quantum Leap Into The Future Of Chemistry


 Q-Chem 5.2, Q-Chem, Inc., Pleasanton, CA (2019)

 License issued to: SRG Alan Aspuru-Guzik, University of Toronto

 Yihan Shao,  Zhengting Gan,  E. Epifanovsky,  A. T. B. Gilbert,  M. Wormit,  
 J. Kussmann,  A. W. Lange,  A. Behn,  Jia Deng,  Xintian Feng,  D. Ghosh,  
 M. Goldey,  P. R. Horn,  L. D. Jacobson,  I. Kaliman,  T. Kus,  A. Landau,  
 Jie Liu,  E. I. Proynov,  R. M. Richard,  R. P. Steele,  E. J. Sundstrom,  
 H. L. Woodcock III,  P. M. Zimmerman,  D. Zuev,  B. Albrecht,  E. Alguire,  
 S. A. Baeppler,  D. Barton,  Z. Benda,  Y. A. Bernard,  E. J. Berquist,  
 K. B. Bravaya,  H. Burton,  D. Casanova,  Chun-Min Chang,  Yunqing Chen,  
 A. Chien,  K. D. Closser,  M. P. Coons,  S. Coriani,  S. Dasgupta,  
 A. L. Dempwolff,  M. Diedenhofen,  Hainam Do,  R. G. Edgar,  Po-Tung Fang,  
 S. Faraji,  S. Fatehi,  Qingguo Feng,  K. D. Fenk,  J. Fosso-Tande,  
 J. Gayvert,  Qinghui Ge,  A. Ghysels,  G. Gidofalvi,  J. Gomes,  
 J. Gonthier,  A. Gunina,  D. Hait,  M. W. D. Hanson-Heine,  
 P. H. P. Harbach,  A. W. Hauser,  M. F. Herbst,  J. E. Herr,  
 E. G. Hohenstein,  Z. C. Holden,  Kerwin Hui,  B. C. Huynh,  T.-C. Jagau,  
 Hyunjun Ji,  B. Kaduk,  K. Khistyaev,  Jaehoon Kim,  P. Klunzinger,  K. Koh,  
 D. Kosenkov,  L. Koulias,  T. Kowalczyk,  C. M. Krauter,  A. Kunitsa,  
 Ka Un Lao,  A. Laurent,  K. V. Lawler,  Joonho Lee,  D. Lefrancois,  
 S. Lehtola,  D. S. Levine,  Yi-Pei Li,  You-Sheng Lin,  Fenglai Liu,  
 E. Livshits,  A. Luenser,  P. Manohar,  E. Mansoor,  S. F. Manzer,  
 Shan-Ping Mao,  Yuezhi Mao,  N. Mardirossian,  A. V. Marenich,  
 T. Markovich,  L. A. Martinez-Martinez,  S. A. Maurer,  N. J. Mayhall,  
 S. C. McKenzie,  J.-M. Mewes,  P. Morgante,  A. F. Morrison,  
 J. W. Mullinax,  K. Nanda,  T. S. Nguyen-Beck,  R. Olivares-Amaya,  
 J. A. Parkhill,  Zheng Pei,  T. M. Perrine,  F. Plasser,  P. Pokhilko,  
 S. Prager,  A. Prociuk,  E. Ramos,  D. R. Rehn,  F. Rob,  M. Scheurer,  
 M. Schneider,  N. Sergueev,  S. M. Sharada,  S. Sharma,  D. W. Small,  
 T. Stauch,  T. Stein,  Yu-Chuan Su,  A. J. W. Thom,  A. Tkatchenko,  
 T. Tsuchimochi,  N. M. Tubman,  L. Vogt,  M. L. Vidal,  O. Vydrov,  
 M. A. Watson,  J. Wenzel,  M. de Wergifosse,  T. A. Wesolowski,  A. White,  
 J. Witte,  A. Yamada,  Jun Yang,  K. Yao,  S. Yeganeh,  S. R. Yost,  
 Zhi-Qiang You,  A. Zech,  Igor Ying Zhang,  Xing Zhang,  Yan Zhao,  
 Ying Zhu,  B. R. Brooks,  G. K. L. Chan,  C. J. Cramer,  M. S. Gordon,  
 W. J. Hehre,  A. Klamt,  M. W. Schmidt,  C. D. Sherrill,  D. G. Truhlar,  
 A. Aspuru-Guzik,  R. Baer,  A. T. Bell,  N. A. Besley,  Jeng-Da Chai,  
 A. E. DePrince, III,  R. A. DiStasio Jr.,  A. Dreuw,  B. D. Dunietz,  
 T. R. Furlani,  Chao-Ping Hsu,  Yousung Jung,  Jing Kong,  D. S. Lambrecht,  
 WanZhen Liang,  C. Ochsenfeld,  V. A. Rassolov,  L. V. Slipchenko,  
 J. E. Subotnik,  T. Van Voorhis,  J. M. Herbert,  A. I. Krylov,  
 P. M. W. Gill,  M. Head-Gordon

 Contributors to earlier versions of Q-Chem not listed above: 
 R. D. Adamson,  B. Austin,  J. Baker,  G. J. O. Beran,  K. Brandhorst,  
 S. T. Brown,  E. F. C. Byrd,  A. K. Chakraborty,  C.-L. Cheng,  
 Siu Hung Chien,  D. M. Chipman,  D. L. Crittenden,  H. Dachsel,  
 R. J. Doerksen,  A. D. Dutoi,  L. Fusti-Molnar,  W. A. Goddard III,  
 A. Golubeva-Zadorozhnaya,  S. R. Gwaltney,  G. Hawkins,  A. Heyden,  
 S. Hirata,  G. Kedziora,  F. J. Keil,  C. Kelley,  Jihan Kim,  R. A. King,  
 R. Z. Khaliullin,  P. P. Korambath,  W. Kurlancheek,  A. M. Lee,  M. S. Lee,  
 S. V. Levchenko,  Ching Yeh Lin,  D. Liotard,  R. C. Lochan,  I. Lotan,  
 P. E. Maslen,  N. Nair,  D. P. O'Neill,  D. Neuhauser,  E. Neuscamman,  
 C. M. Oana,  R. Olson,  B. Peters,  R. Peverati,  P. A. Pieniazek,  
 Y. M. Rhee,  J. Ritchie,  M. A. Rohrdanz,  E. Rosta,  N. J. Russ,  
 H. F. Schaefer III,  N. E. Schultz,  N. Shenvi,  A. C. Simmonett,  A. Sodt,  
 D. Stuck,  K. S. Thanthiriwatte,  V. Vanovschi,  Tao Wang,  A. Warshel,  
 C. F. Williams,  Q. Wu,  X. Xu,  W. Zhang

 Please cite Q-Chem as follows:
 Y. Shao et al., Mol. Phys. 113, 184-215 (2015)
 DOI: 10.1080/00268976.2014.952696

 Q-Chem 5.2.1 for Intel X86 EM64T Linux

 Parts of Q-Chem use Armadillo 8.300.2 (Tropical Shenanigans).
 http://arma.sourceforge.net/

 Q-Chem begins on Mon Feb  7 13:48:21 2022  

Host: 
0

     Scratch files written to /gpfs/fs0/scratch/a/aspuru/rhickman/descriptor_computation/qchem51058//
 Jul1719 |scratch|qcdevops|jenkins|workspace|build_RNUM -1
Processing $rem in /scinet/niagara/software/commercial/qc52/config/preferences:
	 MEM_TOTAL  4000 
NAlpha2: 118
NElect   118
Mult     1

Checking the input file for inconsistencies... 	...done.

--------------------------------------------------------------
User input:
--------------------------------------------------------------
$molecule
0 1
C         0.67018887090000   -4.62236580050000   -0.17452595200000
C        -0.29497309930000   -3.71745368160000   -0.28108015510000
C        -0.14359653080000   -2.26958604330000   -0.18246401430000
C         1.09577332510000   -1.63832897270000   -0.12479214580000
C         1.21490723660000   -0.25266933900000   -0.02696735980000
C         2.55382111660000    0.31415137200000    0.02832652570000
C         2.90378352460000    1.58704980700000    0.14858645800000
F         2.11400945620000    2.64434905240000    0.24755658160000
F         4.17016150260000    1.98588614110000    0.18948874760000
C         0.05575207800000    0.52318929980000    0.01102973950000
C        -1.18113411090000   -0.10041881590000   -0.05433217980000
C        -2.41513040370000    0.75644785660000    0.00947509080000
F        -2.32026638810000    1.85214958170000   -0.76067012080000
F        -3.52524834720000    0.11332313380000   -0.37977866540000
F        -2.65560657210000    1.19795806110000    1.25969427730000
C        -1.29258497140000   -1.47734969850000   -0.14857727020000
H         0.45790249560000   -5.67402649120000   -0.25744372450000
H         1.69968577520000   -4.36436087190000    0.00508625700000
H        -1.31177816260000   -4.05004171770000   -0.44557396780000
H         1.99504904130000   -2.23292783650000   -0.16271934900000
H         3.37617218410000   -0.38365569900000   -0.03311183240000
H         0.10124153630000    1.59709488210000    0.08208336920000
H        -2.26827763270000   -1.93673421500000   -0.19638884610000
$end

$rem
BASIS = 6-31G*
GUI = 2
METHOD = B3LYP
PRINT_ORBITALS false
MOLDEN_FORMAT false
--------------------------------------------------------------
 ----------------------------------------------------------------
             Standard Nuclear Orientation (Angstroms)
    I     Atom           X                Y                Z
 ----------------------------------------------------------------
    1      C      -1.4046749064    -4.3444048298     0.1023795735
    2      C      -1.8804265024    -3.1139712363    -0.0440818919
    3      C      -1.1070639115    -1.8767016888    -0.0381593276
    4      C       0.2847766972    -1.8517337723    -0.0405037604
    5      C       1.0019359869    -0.6561557465    -0.0309677529
    6      C       2.4549159500    -0.7328179949    -0.0333418829
    7      C       3.3310614362     0.2613374182     0.0017389661
    8      F       3.0881891839     1.5614506926     0.0479818200
    9      F       4.6448074969     0.0651181522    -0.0033491899
   10      C       0.3015860459     0.5506869256    -0.0219226629
   11      C      -1.0850031394     0.5311176196    -0.0277690513
   12      C      -1.8160643555     1.8447485329     0.0032476327
   13      F      -1.2841862054     2.7487328148    -0.8349666302
   14      F      -3.1109960165     1.7362951612    -0.3267214625
   15      F      -1.7861762511     2.4070939711     1.2274544665
   16      C      -1.7912920436    -0.6598290868    -0.0344033028
   17      H      -2.0588114268    -5.1987141431     0.0885202676
   18      H      -0.3594512316    -4.5562345326     0.2484159094
   19      H      -2.9462287651    -2.9738923817    -0.1706085852
   20      H       0.8309520337    -2.7818534890    -0.0564068962
   21      H       2.8858590922    -1.7228966318    -0.0650114163
   22      H       0.8151159909     1.4976116373    -0.0185028769
   23      H      -2.8706871074    -0.6458944318    -0.0372966750
 ----------------------------------------------------------------
 Molecular Point Group                 C1    NOp =  1
 Largest Abelian Subgroup              C1    NOp =  1
 Nuclear Repulsion Energy =        1080.27953662 hartrees
 There are       59 alpha and       59 beta electrons
 Requested basis set is 6-31G(d)
 There are 78 shells and 254 basis functions

 Total QAlloc Memory Limit   4000 MB
 Mega-Array Size       188 MB
 MEM_STATIC part       192 MB
 A cutoff of  1.0D-08 yielded   1838 shell pairs
 There are     20532 function pairs
 Smallest overlap matrix eigenvalue = 3.61E-04

 Scale SEOQF with 1.000000e-01/1.000000e-01/1.000000e+00

 Standard Electronic Orientation quadrupole field applied
 Nucleus-field energy     =     0.0000000349 hartrees
 Guess from superposition of atomic densities
 Warning:  Energy on first SCF cycle will be non-variational
 SAD guess density has 118.000000 electrons

 -----------------------------------------------------------------------
  General SCF calculation program by
  Eric Jon Sundstrom, Paul Horn, Yuezhi Mao, Dmitri Zuev, Alec White,
  David Stuck, Shaama M.S., Shane Yost, Joonho Lee, David Small,
  Daniel Levine, Susi Lehtola, Hugh Burton, Evgeny Epifanovsky,
  Bang C. Huynh
 -----------------------------------------------------------------------
 Exchange:     0.2000 Hartree-Fock + 0.0800 Slater + 0.7200 B88
 Correlation:  0.1900 VWN1RPA + 0.8100 LYP
 Using SG-1 standard quadrature grid
 A restricted SCF calculation will be
 performed using DIIS
 SCF converges when DIIS error is below 1.0e-05
 ---------------------------------------
  Cycle       Energy         DIIS error
 ---------------------------------------
    1    -925.9807800847      4.87e-02  
    2    -922.2805385552      6.11e-03  
    3    -922.0037078366      8.80e-03  
    4    -922.5365925459      1.36e-03  
    5    -922.5501663686      5.46e-04  
    6    -922.5524137058      1.85e-04  
    7    -922.5526867174      4.29e-05  
    8    -922.5527000562      1.72e-05  
    9    -922.5527022602      3.76e-06  Convergence criterion met
 ---------------------------------------
 SCF time:   CPU 37.86s  wall 38.00s 
 SCF   energy in the final basis set =     -922.5527022602
 Total energy in the final basis set =     -922.5527022602
 
 --------------------------------------------------------------
 
                    Orbital Energies (a.u.)
 --------------------------------------------------------------
 
 Alpha MOs
 -- Occupied --
-24.7553 -24.7443 -24.7236 -24.7201 -24.7149 -10.4284 -10.3685 -10.2233
-10.2174 -10.2134 -10.2133 -10.2071 -10.2067 -10.2060 -10.2026 -10.1928
 -1.3043  -1.2977  -1.2360  -1.2148  -1.2087  -0.8915  -0.8288  -0.8130
 -0.7674  -0.7446  -0.6994  -0.6598  -0.6455  -0.6246  -0.5991  -0.5837
 -0.5785  -0.5779  -0.5402  -0.5303  -0.5238  -0.5129  -0.4958  -0.4632
 -0.4560  -0.4544  -0.4512  -0.4506  -0.4426  -0.4283  -0.4208  -0.4184
 -0.4080  -0.4037  -0.3960  -0.3933  -0.3870  -0.3608  -0.3564  -0.3312
 -0.3017  -0.2468  -0.2335
 -- Virtual --
 -0.0511  -0.0392   0.0193   0.0742   0.0784   0.1018   0.1137   0.1365
  0.1444   0.1510   0.1556   0.1613   0.1924   0.2005   0.2110   0.2258
  0.2379   0.2568   0.2698   0.2982   0.3155   0.3403   0.3473   0.3993
  0.4188   0.4398   0.4476   0.4764   0.4813   0.5011   0.5116   0.5144
  0.5231   0.5361   0.5406   0.5586   0.5630   0.5715   0.5752   0.5848
  0.5924   0.5946   0.6013   0.6151   0.6345   0.6500   0.6729   0.6887
  0.7230   0.7393   0.7580   0.7686   0.7798   0.8073   0.8098   0.8188
  0.8456   0.8698   0.8845   0.9076   0.9232   0.9444   0.9641   0.9651
  0.9898   1.0256   1.0586   1.0737   1.0843   1.0923   1.0985   1.1053
  1.1309   1.1405   1.1519   1.1623   1.1855   1.2039   1.2138   1.2309
  1.2346   1.2568   1.2803   1.3018   1.3301   1.3354   1.3468   1.3540
  1.3623   1.3868   1.3925   1.3940   1.4084   1.4366   1.4477   1.4547
  1.4675   1.4696   1.4947   1.5044   1.5102   1.5627   1.5937   1.6308
  1.6470   1.6632   1.6761   1.6946   1.7352   1.7552   1.7726   1.7737
  1.7785   1.8105   1.8188   1.8271   1.8483   1.8625   1.8641   1.8847
  1.8851   1.8966   1.9366   1.9535   1.9635   1.9751   1.9854   1.9909
  2.0106   2.0174   2.0208   2.0219   2.0346   2.0583   2.0967   2.1004
  2.1069   2.1275   2.1401   2.1472   2.1586   2.2036   2.2137   2.2247
  2.2364   2.2582   2.2887   2.3147   2.3434   2.3688   2.4041   2.4211
  2.4567   2.5102   2.5201   2.5258   2.5950   2.6139   2.6229   2.6499
  2.6746   2.6858   2.7104   2.7627   2.7765   2.8143   2.8748   2.8816
  2.9276   2.9781   3.0200   3.0387   3.0479   3.0489   3.1121   3.1440
  3.1775   3.3125   3.4668   4.0664   4.0779   4.0854   4.1152   4.1373
  4.2257   4.2373   4.2834   4.3995   4.4822   4.5193   4.6828   4.7887
  4.8264   5.3074   5.6036
 --------------------------------------------------------------
 
          Ground-State Mulliken Net Atomic Charges

     Atom                 Charge (a.u.)
  ----------------------------------------
      1 C                    -0.349563
      2 C                    -0.111105
      3 C                     0.175116
      4 C                    -0.246451
      5 C                     0.194715
      6 C                    -0.299141
      7 C                     0.552406
      8 F                    -0.227661
      9 F                    -0.242673
     10 C                    -0.228524
     11 C                    -0.006739
     12 C                     0.779584
     13 F                    -0.266063
     14 F                    -0.267118
     15 F                    -0.262409
     16 C                    -0.237608
     17 H                     0.151530
     18 H                     0.146045
     19 H                     0.135167
     20 H                     0.132896
     21 H                     0.162838
     22 H                     0.162122
     23 H                     0.152632
  ----------------------------------------
  Sum of atomic charges =     0.000000

 -----------------------------------------------------------------
                    Cartesian Multipole Moments
 -----------------------------------------------------------------
    Charge (ESU x 10^10)
                -0.0000
    Dipole Moment (Debye)
         X       0.6374      Y      -2.9723      Z      -0.1031
       Tot       3.0416
    Quadrupole Moments (Debye-Ang)
        XX     -86.7658     XY       2.7551     YY     -83.7537
        XZ       0.3735     YZ      -0.3062     ZZ     -90.0779
    Octopole Moments (Debye-Ang^2)
       XXX      -7.5024    XXY      -0.5820    XYY      10.0955
       YYY      24.7280    XXZ      -0.6893    XYZ      -0.1644
       YYZ       1.4433    XZZ       9.3087    YZZ      27.7266
       ZZZ       0.2188
    Hexadecapole Moments (Debye-Ang^3)
      XXXX   -2606.8547   XXXY     -26.1320   XXYY    -758.3097
      XYYY     -16.4916   YYYY   -2047.3911   XXXZ       0.5293
      XXYZ       2.7526   XYYZ       2.9083   YYYZ      -7.3623
      XXZZ    -449.0630   XYZZ     -22.7022   YYZZ    -418.3961
      XZZZ       2.5122   YZZZ       0.0340   ZZZZ    -144.9797
 -----------------------------------------------------------------
Archival summary:
1\1\nia1977.scinet.local\SP\ProcedureUnspecified\6-31G*\5117\rhickman\MonFeb713:49:002022MonFeb713:49:002022\0\\#,ProcedureUnspecified,6-31G*,\\0,1\F\C,1,1.34264\F,2,1.3407,1,106.465\F,2,1.34752,1,106.106,3,-112.824,0\C,2,1.50368,1,112.502,3,124.538,0\C,5,1.38465,2,120.232,1,-137.179,0\H,6,1.07949,5,119.931,2,1.22717,0\C,5,1.38674,2,118.276,1,44.1019,0\H,8,1.07721,5,119.281,2,-1.399,0\C,8,1.39536,5,119.316,2,179.09,0\C,10,1.39421,8,118.917,5,-0.243066,0\H,11,1.07874,10,118.623,8,179.459,0\C,11,1.39207,10,121.983,8,-0.150665,0\C,10,1.455,8,123.147,5,179.645,0\H,14,1.08026,10,116.533,8,-178.551,0\C,14,1.3256,10,128.35,8,1.62531,0\F,16,1.32341,14,128.053,10,0.0367038,0\F,16,1.32833,14,122.875,10,179.922,0\C,13,1.4591,11,123.035,10,-179.818,0\H,19,1.08239,13,114.371,11,-172.467,0\C,19,1.32731,13,126.559,11,8.33644,0\H,21,1.07607,19,121.108,13,179.696,0\H,21,1.07643,19,123.055,13,0.183907,0\\\@

 Total job time:  38.19s(wall), 38.07s(cpu) 
 Mon Feb  7 13:49:00 2022

        *************************************************************
        *                                                           *
        *  Thank you very much for using Q-Chem.  Have a nice day.  *
        *                                                           *
        *************************************************************


