
Running Job 1 of 1 fragments/C058/conf-2/spe_input.inp
qchem fragments/C058/conf-2/spe_input.inp_263360.0 /gpfs/fs0/scratch/a/aspuru/rhickman/descriptor_computation/qchem263360/ 0
/scinet/niagara/software/commercial/qc52/exe/qcprog.exe_s fragments/C058/conf-2/spe_input.inp_263360.0 /gpfs/fs0/scratch/a/aspuru/rhickman/descriptor_computation/qchem263360/
                  Welcome to Q-Chem
     A Quantum Leap Into The Future Of Chemistry


 Q-Chem 5.2, Q-Chem, Inc., Pleasanton, CA (2019)

 License issued to: SRG Alan Aspuru-Guzik, University of Toronto

 Yihan Shao,  Zhengting Gan,  E. Epifanovsky,  A. T. B. Gilbert,  M. Wormit,  
 J. Kussmann,  A. W. Lange,  A. Behn,  Jia Deng,  Xintian Feng,  D. Ghosh,  
 M. Goldey,  P. R. Horn,  L. D. Jacobson,  I. Kaliman,  T. Kus,  A. Landau,  
 Jie Liu,  E. I. Proynov,  R. M. Richard,  R. P. Steele,  E. J. Sundstrom,  
 H. L. Woodcock III,  P. M. Zimmerman,  D. Zuev,  B. Albrecht,  E. Alguire,  
 S. A. Baeppler,  D. Barton,  Z. Benda,  Y. A. Bernard,  E. J. Berquist,  
 K. B. Bravaya,  H. Burton,  D. Casanova,  Chun-Min Chang,  Yunqing Chen,  
 A. Chien,  K. D. Closser,  M. P. Coons,  S. Coriani,  S. Dasgupta,  
 A. L. Dempwolff,  M. Diedenhofen,  Hainam Do,  R. G. Edgar,  Po-Tung Fang,  
 S. Faraji,  S. Fatehi,  Qingguo Feng,  K. D. Fenk,  J. Fosso-Tande,  
 J. Gayvert,  Qinghui Ge,  A. Ghysels,  G. Gidofalvi,  J. Gomes,  
 J. Gonthier,  A. Gunina,  D. Hait,  M. W. D. Hanson-Heine,  
 P. H. P. Harbach,  A. W. Hauser,  M. F. Herbst,  J. E. Herr,  
 E. G. Hohenstein,  Z. C. Holden,  Kerwin Hui,  B. C. Huynh,  T.-C. Jagau,  
 Hyunjun Ji,  B. Kaduk,  K. Khistyaev,  Jaehoon Kim,  P. Klunzinger,  K. Koh,  
 D. Kosenkov,  L. Koulias,  T. Kowalczyk,  C. M. Krauter,  A. Kunitsa,  
 Ka Un Lao,  A. Laurent,  K. V. Lawler,  Joonho Lee,  D. Lefrancois,  
 S. Lehtola,  D. S. Levine,  Yi-Pei Li,  You-Sheng Lin,  Fenglai Liu,  
 E. Livshits,  A. Luenser,  P. Manohar,  E. Mansoor,  S. F. Manzer,  
 Shan-Ping Mao,  Yuezhi Mao,  N. Mardirossian,  A. V. Marenich,  
 T. Markovich,  L. A. Martinez-Martinez,  S. A. Maurer,  N. J. Mayhall,  
 S. C. McKenzie,  J.-M. Mewes,  P. Morgante,  A. F. Morrison,  
 J. W. Mullinax,  K. Nanda,  T. S. Nguyen-Beck,  R. Olivares-Amaya,  
 J. A. Parkhill,  Zheng Pei,  T. M. Perrine,  F. Plasser,  P. Pokhilko,  
 S. Prager,  A. Prociuk,  E. Ramos,  D. R. Rehn,  F. Rob,  M. Scheurer,  
 M. Schneider,  N. Sergueev,  S. M. Sharada,  S. Sharma,  D. W. Small,  
 T. Stauch,  T. Stein,  Yu-Chuan Su,  A. J. W. Thom,  A. Tkatchenko,  
 T. Tsuchimochi,  N. M. Tubman,  L. Vogt,  M. L. Vidal,  O. Vydrov,  
 M. A. Watson,  J. Wenzel,  M. de Wergifosse,  T. A. Wesolowski,  A. White,  
 J. Witte,  A. Yamada,  Jun Yang,  K. Yao,  S. Yeganeh,  S. R. Yost,  
 Zhi-Qiang You,  A. Zech,  Igor Ying Zhang,  Xing Zhang,  Yan Zhao,  
 Ying Zhu,  B. R. Brooks,  G. K. L. Chan,  C. J. Cramer,  M. S. Gordon,  
 W. J. Hehre,  A. Klamt,  M. W. Schmidt,  C. D. Sherrill,  D. G. Truhlar,  
 A. Aspuru-Guzik,  R. Baer,  A. T. Bell,  N. A. Besley,  Jeng-Da Chai,  
 A. E. DePrince, III,  R. A. DiStasio Jr.,  A. Dreuw,  B. D. Dunietz,  
 T. R. Furlani,  Chao-Ping Hsu,  Yousung Jung,  Jing Kong,  D. S. Lambrecht,  
 WanZhen Liang,  C. Ochsenfeld,  V. A. Rassolov,  L. V. Slipchenko,  
 J. E. Subotnik,  T. Van Voorhis,  J. M. Herbert,  A. I. Krylov,  
 P. M. W. Gill,  M. Head-Gordon

 Contributors to earlier versions of Q-Chem not listed above: 
 R. D. Adamson,  B. Austin,  J. Baker,  G. J. O. Beran,  K. Brandhorst,  
 S. T. Brown,  E. F. C. Byrd,  A. K. Chakraborty,  C.-L. Cheng,  
 Siu Hung Chien,  D. M. Chipman,  D. L. Crittenden,  H. Dachsel,  
 R. J. Doerksen,  A. D. Dutoi,  L. Fusti-Molnar,  W. A. Goddard III,  
 A. Golubeva-Zadorozhnaya,  S. R. Gwaltney,  G. Hawkins,  A. Heyden,  
 S. Hirata,  G. Kedziora,  F. J. Keil,  C. Kelley,  Jihan Kim,  R. A. King,  
 R. Z. Khaliullin,  P. P. Korambath,  W. Kurlancheek,  A. M. Lee,  M. S. Lee,  
 S. V. Levchenko,  Ching Yeh Lin,  D. Liotard,  R. C. Lochan,  I. Lotan,  
 P. E. Maslen,  N. Nair,  D. P. O'Neill,  D. Neuhauser,  E. Neuscamman,  
 C. M. Oana,  R. Olson,  B. Peters,  R. Peverati,  P. A. Pieniazek,  
 Y. M. Rhee,  J. Ritchie,  M. A. Rohrdanz,  E. Rosta,  N. J. Russ,  
 H. F. Schaefer III,  N. E. Schultz,  N. Shenvi,  A. C. Simmonett,  A. Sodt,  
 D. Stuck,  K. S. Thanthiriwatte,  V. Vanovschi,  Tao Wang,  A. Warshel,  
 C. F. Williams,  Q. Wu,  X. Xu,  W. Zhang

 Please cite Q-Chem as follows:
 Y. Shao et al., Mol. Phys. 113, 184-215 (2015)
 DOI: 10.1080/00268976.2014.952696

 Q-Chem 5.2.1 for Intel X86 EM64T Linux

 Parts of Q-Chem use Armadillo 8.300.2 (Tropical Shenanigans).
 http://arma.sourceforge.net/

 Q-Chem begins on Mon Feb  7 09:22:06 2022  

Host: 
0

     Scratch files written to /gpfs/fs0/scratch/a/aspuru/rhickman/descriptor_computation/qchem263360//
 Jul1719 |scratch|qcdevops|jenkins|workspace|build_RNUM -1
Processing $rem in /scinet/niagara/software/commercial/qc52/config/preferences:
	 MEM_TOTAL  4000 
NAlpha2: 166
NElect   166
Mult     1

Checking the input file for inconsistencies... 	...done.

--------------------------------------------------------------
User input:
--------------------------------------------------------------
$molecule
0 1
C         2.56833952700000   -2.54156567530000   -0.85999591350000
C         2.31455165040000   -1.33608497400000   -1.34940323090000
C         1.32463466740000   -0.40930384890000   -0.79825614840000
C         0.11434502660000   -0.91556398610000   -0.32622623430000
C        -0.88675900700000   -0.11238480230000    0.18934547370000
C        -2.18285298660000   -0.73430439990000    0.62472878120000
C        -3.29353337880000   -0.47062573340000   -0.39788792120000
C        -4.62131330910000   -1.08848983620000    0.03146888000000
C        -5.72630155770000   -0.81256341590000   -0.98566811590000
C        -7.04845820270000   -1.50271342940000   -0.64849634070000
C        -7.71325841820000   -0.94813239170000    0.60613325240000
C        -0.68380912630000    1.27509641210000    0.22162224460000
C        -1.70239237730000    2.18626236210000    0.74026325020000
C        -1.91908023700000    3.41459656280000    0.28934287950000
C         0.52766384140000    1.77925350280000   -0.24154802390000
C         1.53622963330000    0.97402804930000   -0.74622479200000
C         2.83546520180000    1.62461843700000   -1.13295252670000
C         3.67942892460000    1.95553049340000    0.10749477450000
C         4.14322803300000    0.72333150080000    0.88505924440000
C         5.28087016790000   -0.02452219590000    0.19261190650000
C         5.63208410340000   -1.34625507940000    0.87501426710000
C         6.20774137290000   -1.16990683610000    2.27518378230000
H         3.29344384710000   -3.19678159280000   -1.31217483870000
H         2.07383149600000   -2.91433107590000    0.02205178680000
H         2.85543984870000   -0.99562527050000   -2.22317395510000
H        -0.05246122420000   -1.98196125120000   -0.38552189350000
H        -2.48878625080000   -0.33946187520000    1.59664448350000
H        -2.04867082750000   -1.81276204890000    0.73411850200000
H        -2.99122580290000   -0.88374828560000   -1.36334335410000
H        -3.41670358580000    0.60729889510000   -0.52508388830000
H        -4.90429404740000   -0.68009114270000    1.00331309710000
H        -4.49867062110000   -2.16850055730000    0.14629942910000
H        -5.39162066950000   -1.15864033030000   -1.96698481800000
H        -5.89018880900000    0.26543501200000   -1.05604183310000
H        -6.87379749070000   -2.57388364750000   -0.52309040250000
H        -7.73083151270000   -1.37685294670000   -1.49268760710000
H        -7.10865892060000   -1.14312882730000    1.48792751180000
H        -8.68588880830000   -1.41212141340000    0.75437012490000
H        -7.85663244390000    0.12664608110000    0.51652180660000
H        -2.31535094320000    1.80584549370000    1.54721379360000
H        -1.36243767830000    3.82872866070000   -0.53481388750000
H        -2.67827916510000    4.04838579220000    0.71559864910000
H         0.69700552810000    2.84536157320000   -0.18697489660000
H         2.62131634990000    2.55923462250000   -1.65828698800000
H         3.41089108690000    0.99041345990000   -1.80465131230000
H         3.08038640400000    2.58445343280000    0.77034027150000
H         4.55280788570000    2.53486874370000   -0.20211667900000
H         3.29709146210000    0.04796394070000    1.02685029490000
H         4.47894034740000    1.04762495520000    1.87175891970000
H         6.16725830590000    0.61443712200000    0.16198679200000
H         4.99388054100000   -0.24303485100000   -0.83706394890000
H         6.36444540120000   -1.87233220130000    0.25726326740000
H         4.73479514140000   -1.96745433270000    0.92426152020000
H         7.07388082710000   -0.51167410620000    2.25058376250000
H         6.51974591190000   -2.13073117810000    2.67883884560000
H         5.46961756390000   -0.74392999150000    2.94947296800000
$end

$rem
BASIS = 6-31G*
GUI = 2
METHOD = B3LYP
PRINT_ORBITALS false
MOLDEN_FORMAT false
--------------------------------------------------------------
 ----------------------------------------------------------------
             Standard Nuclear Orientation (Angstroms)
    I     Atom           X                Y                Z
 ----------------------------------------------------------------
    1      C       2.4287914934     2.6466382708     0.9469045972
    2      C       2.1977216889     1.4431269812     1.4521558725
    3      C       1.2764407344     0.4640238905     0.8731735460
    4      C       0.0737325520     0.9090746256     0.3260579714
    5      C      -0.8655505094     0.0537819264    -0.2210635900
    6      C      -2.1604516395     0.6116548743    -0.7389545548
    7      C      -3.3125924260     0.3256420289     0.2304011864
    8      C      -4.6392679128     0.8782933062    -0.2830299911
    9      C      -5.7849473117     0.5801568327     0.6814571502
   10      C      -7.1138146850     1.2073373938     0.2585551653
   11      C      -7.6881155085     0.5974753968    -1.0149682065
   12      C      -0.6058252672    -1.3245185427    -0.2082113587
   13      C      -1.5580651487    -2.2884690781    -0.7566293505
   14      C      -1.7491528306    -3.5141509264    -0.2872923475
   15      C       0.5984514480    -1.7676207496     0.3300690967
   16      C       1.5456782200    -0.9102233569     0.8666534622
   17      C       2.8474529103    -1.4977095831     1.3368468750
   18      C       3.7688606335    -1.8215752409     0.1508426993
   19      C       4.2237568366    -0.5892477706    -0.6317612398
   20      C       5.2920655262     0.2204275890     0.1004548830
   21      C       5.6259753915     1.5397032917    -0.5952590292
   22      C       6.2819980096     1.3555354588    -1.9585899502
   23      H       3.1019843826     3.3413054200     1.4199784179
   24      H       1.9674575690     2.9785738367     0.0312135071
   25      H       2.7044812659     1.1451871959     2.3612074368
   26      H      -0.1385235928     1.9687516589     0.3500442498
   27      H      -2.3981338254     0.1825758764    -1.7154351260
   28      H      -2.0638843876     1.6919709090    -0.8679270110
   29      H      -3.0789150249     0.7726846030     1.1997886815
   30      H      -3.3991420822    -0.7532832128     0.3777127558
   31      H      -4.8535100522     0.4366218515    -1.2579019854
   32      H      -4.5539867850     1.9595611120    -0.4180762905
   33      H      -5.5171312850     0.9619237739     1.6700377366
   34      H      -5.9090935866    -0.5018113747     0.7699139334
   35      H      -6.9757140608     2.2816808998     0.1158915806
   36      H      -7.8346083840     1.0726142114     1.0687645192
   37      H      -7.0456854787     0.7971956359    -1.8685024831
   38      H      -8.6692503461     1.0174544044    -1.2253533819
   39      H      -7.7929477718    -0.4799935496    -0.9063129989
   40      H      -2.1418931062    -1.9520741298    -1.6037348525
   41      H      -1.2210835788    -3.8861570003     0.5748822610
   42      H      -2.4586027362    -4.1882337906    -0.7368019744
   43      H       0.8129742494    -2.8267971467     0.3109228604
   44      H       2.6431841139    -2.4282061221     1.8733111246
   45      H       3.3604462584    -0.8252254510     2.0217651750
   46      H       3.2316201775    -2.4895567825    -0.5266036164
   47      H       4.6469824468    -2.3572094449     0.5200051981
   48      H       3.3600351251     0.0472408597    -0.8343449717
   49      H       4.6242599563    -0.9217161946    -1.5911919304
   50      H       6.2004148468    -0.3805545277     0.1932603015
   51      H       4.9421192461     0.4502179776     1.1079652660
   52      H       6.3027550922     2.1094308922     0.0466959570
   53      H       4.7084519958     2.1220727544    -0.7067844199
   54      H       7.1712356395     0.7343291205    -1.8723799476
   55      H       6.5763745628     2.3190094560    -2.3691115212
   56      H       5.5984759267     0.8842765688    -2.6597757717
 ----------------------------------------------------------------
 Molecular Point Group                 C1    NOp =  1
 Largest Abelian Subgroup              C1    NOp =  1
 Nuclear Repulsion Energy =        1748.47691336 hartrees
 There are       83 alpha and       83 beta electrons
 Requested basis set is 6-31G(d)
 There are 156 shells and 398 basis functions

 Total QAlloc Memory Limit   4000 MB
 Mega-Array Size       188 MB
 MEM_STATIC part       192 MB
 A cutoff of  1.0D-08 yielded   5450 shell pairs
 There are     38380 function pairs
 Smallest overlap matrix eigenvalue = 2.86E-04

 Scale SEOQF with 1.000000e-02/1.000000e-01/1.000000e-01

 Standard Electronic Orientation quadrupole field applied
 Nucleus-field energy     =     0.0000000238 hartrees
 Guess from superposition of atomic densities
 Warning:  Energy on first SCF cycle will be non-variational
 SAD guess density has 166.000001 electrons

 -----------------------------------------------------------------------
  General SCF calculation program by
  Eric Jon Sundstrom, Paul Horn, Yuezhi Mao, Dmitri Zuev, Alec White,
  David Stuck, Shaama M.S., Shane Yost, Joonho Lee, David Small,
  Daniel Levine, Susi Lehtola, Hugh Burton, Evgeny Epifanovsky,
  Bang C. Huynh
 -----------------------------------------------------------------------
 Exchange:     0.2000 Hartree-Fock + 0.0800 Slater + 0.7200 B88
 Correlation:  0.1900 VWN1RPA + 0.8100 LYP
 Using SG-1 standard quadrature grid
 A restricted SCF calculation will be
 performed using DIIS
 SCF converges when DIIS error is below 1.0e-05
 ---------------------------------------
  Cycle       Energy         DIIS error
 ---------------------------------------
    1    -863.2858353879      3.97e-02  
    2    -858.3541664961      4.51e-03  
    3    -858.3273524491      4.70e-03  
    4    -858.7989738994      3.66e-04  
    5    -858.8011114683      1.70e-04  
    6    -858.8015975444      7.92e-05  
    7    -858.8017182818      2.86e-05  
    8    -858.8017354980      5.28e-06  Convergence criterion met
 ---------------------------------------
 SCF time:   CPU 122.87s  wall 123.00s 
 SCF   energy in the final basis set =     -858.8017354980
 Total energy in the final basis set =     -858.8017354980
 
 --------------------------------------------------------------
 
                    Orbital Energies (a.u.)
 --------------------------------------------------------------
 
 Alpha MOs
 -- Occupied --
-10.1876 -10.1875 -10.1868 -10.1867 -10.1845 -10.1844 -10.1795 -10.1782
-10.1777 -10.1776 -10.1763 -10.1762 -10.1730 -10.1726 -10.1726 -10.1714
-10.1706 -10.1665 -10.1661 -10.1651 -10.1640 -10.1616  -0.8686  -0.8196
 -0.8038  -0.7996  -0.7833  -0.7724  -0.7589  -0.7390  -0.7111  -0.7077
 -0.6830  -0.6521  -0.6341  -0.6336  -0.5970  -0.5837  -0.5748  -0.5720
 -0.5630  -0.5518  -0.5313  -0.4965  -0.4865  -0.4710  -0.4638  -0.4531
 -0.4508  -0.4452  -0.4417  -0.4348  -0.4340  -0.4307  -0.4157  -0.4102
 -0.4048  -0.3975  -0.3948  -0.3923  -0.3845  -0.3746  -0.3670  -0.3632
 -0.3560  -0.3525  -0.3498  -0.3471  -0.3391  -0.3376  -0.3341  -0.3266
 -0.3227  -0.3194  -0.3155  -0.3130  -0.3102  -0.3015  -0.2974  -0.2913
 -0.2624  -0.2327  -0.2108
 -- Virtual --
 -0.0323   0.0069   0.0215   0.0663   0.0888   0.0943   0.1020   0.1046
  0.1124   0.1162   0.1269   0.1275   0.1350   0.1369   0.1415   0.1486
  0.1507   0.1597   0.1612   0.1653   0.1677   0.1710   0.1730   0.1756
  0.1829   0.1865   0.1886   0.1894   0.1945   0.1965   0.1982   0.2055
  0.2110   0.2127   0.2199   0.2240   0.2281   0.2344   0.2362   0.2434
  0.2466   0.2500   0.2576   0.2654   0.2670   0.2716   0.2744   0.2931
  0.2990   0.3026   0.3117   0.3205   0.3239   0.3381   0.3757   0.3802
  0.3902   0.3998   0.4335   0.4783   0.4909   0.4966   0.5010   0.5090
  0.5117   0.5138   0.5265   0.5317   0.5342   0.5380   0.5487   0.5503
  0.5550   0.5597   0.5640   0.5751   0.5787   0.5843   0.5930   0.6031
  0.6057   0.6153   0.6175   0.6277   0.6308   0.6392   0.6476   0.6530
  0.6624   0.6673   0.6697   0.6788   0.6852   0.6935   0.6955   0.7007
  0.7034   0.7166   0.7208   0.7234   0.7304   0.7455   0.7493   0.7727
  0.7808   0.7864   0.7968   0.8040   0.8143   0.8220   0.8304   0.8432
  0.8450   0.8517   0.8555   0.8620   0.8640   0.8664   0.8765   0.8823
  0.8854   0.8870   0.8928   0.8949   0.9045   0.9072   0.9191   0.9206
  0.9245   0.9328   0.9337   0.9410   0.9474   0.9519   0.9579   0.9600
  0.9641   0.9672   0.9749   0.9795   0.9856   0.9877   0.9959   1.0023
  1.0121   1.0177   1.0186   1.0213   1.0308   1.0383   1.0439   1.0559
  1.0730   1.0789   1.0881   1.0983   1.1041   1.1239   1.1498   1.1814
  1.1967   1.2002   1.2261   1.2345   1.2478   1.2554   1.2765   1.2868
  1.2992   1.3178   1.3224   1.3658   1.3731   1.4005   1.4077   1.4177
  1.4550   1.4724   1.4791   1.4851   1.4996   1.5121   1.5223   1.5358
  1.5552   1.5742   1.5934   1.6078   1.6174   1.6279   1.6312   1.6348
  1.6536   1.6845   1.6913   1.7179   1.7301   1.7326   1.7607   1.7890
  1.7949   1.8163   1.8311   1.8319   1.8443   1.8514   1.8664   1.8738
  1.8829   1.9046   1.9117   1.9221   1.9430   1.9456   1.9527   1.9646
  1.9649   1.9705   1.9844   1.9911   2.0053   2.0072   2.0093   2.0140
  2.0181   2.0295   2.0320   2.0418   2.0599   2.0679   2.0774   2.0895
  2.1101   2.1305   2.1508   2.1648   2.1737   2.1893   2.2072   2.2114
  2.2286   2.2410   2.2556   2.2596   2.2688   2.2802   2.2895   2.3018
  2.3169   2.3329   2.3369   2.3452   2.3500   2.3668   2.3706   2.3766
  2.3867   2.4017   2.4044   2.4275   2.4320   2.4481   2.4536   2.4584
  2.4760   2.4838   2.5093   2.5301   2.5486   2.6011   2.6032   2.6156
  2.6297   2.6437   2.6522   2.6653   2.6722   2.7121   2.7205   2.7280
  2.7556   2.7746   2.7995   2.8083   2.8280   2.8635   2.8753   2.9329
  2.9963   3.0479   3.0926   3.2404   3.4753   4.1298   4.1367   4.1445
  4.1574   4.1615   4.1700   4.2026   4.2186   4.2477   4.2868   4.3200
  4.3365   4.3647   4.4167   4.4437   4.4684   4.4765   4.5324   4.5551
  4.5854   4.6033   4.8249
 --------------------------------------------------------------
 
          Ground-State Mulliken Net Atomic Charges

     Atom                 Charge (a.u.)
  ----------------------------------------
      1 C                    -0.335210
      2 C                    -0.136533
      3 C                     0.107302
      4 C                    -0.264347
      5 C                     0.130682
      6 C                    -0.356298
      7 C                    -0.258785
      8 C                    -0.251447
      9 C                    -0.249396
     10 C                    -0.249081
     11 C                    -0.443808
     12 C                     0.120135
     13 C                    -0.132648
     14 C                    -0.339989
     15 C                    -0.256647
     16 C                     0.120681
     17 C                    -0.347941
     18 C                    -0.253572
     19 C                    -0.262129
     20 C                    -0.245884
     21 C                    -0.254087
     22 C                    -0.444120
     23 H                     0.142998
     24 H                     0.144396
     25 H                     0.138910
     26 H                     0.120903
     27 H                     0.139932
     28 H                     0.138730
     29 H                     0.135888
     30 H                     0.147452
     31 H                     0.130696
     32 H                     0.126238
     33 H                     0.127643
     34 H                     0.128067
     35 H                     0.128872
     36 H                     0.129124
     37 H                     0.146481
     38 H                     0.141839
     39 H                     0.140811
     40 H                     0.133639
     41 H                     0.143975
     42 H                     0.140692
     43 H                     0.121877
     44 H                     0.140287
     45 H                     0.139204
     46 H                     0.134593
     47 H                     0.127591
     48 H                     0.146764
     49 H                     0.130826
     50 H                     0.121979
     51 H                     0.125580
     52 H                     0.123008
     53 H                     0.138988
     54 H                     0.138426
     55 H                     0.139167
     56 H                     0.147545
  ----------------------------------------
  Sum of atomic charges =     0.000000

 -----------------------------------------------------------------
                    Cartesian Multipole Moments
 -----------------------------------------------------------------
    Charge (ESU x 10^10)
                 0.0000
    Dipole Moment (Debye)
         X      -0.3540      Y       0.0043      Z       0.1073
       Tot       0.3699
    Quadrupole Moments (Debye-Ang)
        XX    -137.6203     XY       0.0580     YY    -133.6753
        XZ       4.2589     YZ      -0.2883     ZZ    -138.9898
    Octopole Moments (Debye-Ang^2)
       XXX      -7.5188    XXY      -4.9411    XYY      -1.4681
       YYY      -3.4904    XXZ      12.2217    XYZ      -0.6004
       YYZ       2.2661    XZZ       1.1892    YZZ       0.2248
       ZZZ       1.5457
    Hexadecapole Moments (Debye-Ang^3)
      XXXX  -14420.0671   XXXY     -19.5283   XXYY   -2701.8256
      XYYY      40.7523   YYYY   -2062.4432   XXXZ      30.4554
      XXYZ      25.1757   XYYZ      17.9326   YYYZ     -18.1255
      XXZZ   -2543.6812   XYZZ       3.1954   YYZZ    -501.4476
      XZZZ      21.0451   YZZZ       4.5101   ZZZZ    -846.4026
 -----------------------------------------------------------------
Archival summary:
1\1\nia0231.scinet.local\SP\ProcedureUnspecified\6-31G*\2234\rhickman\MonFeb709:24:102022MonFeb709:24:102022\0\\#,ProcedureUnspecified,6-31G*,\\0,1\C\C,1,1.39424\H,2,1.08099,1,118.267\C,2,1.38316,1,122.931,3,-178.774,0\C,1,1.40039,2,118.507,3,178.857,0\C,5,1.38575,1,118.526,2,-0.696217,0\H,6,1.08085,5,118.523,1,179.053,0\C,6,1.39153,5,122.979,1,0.299428,0\C,8,1.46175,6,119.928,5,-179.976,0\H,9,1.08241,8,116.107,6,-146.499,0\C,9,1.32631,8,124.786,6,33.8534,0\H,11,1.07692,9,121.712,8,-179.376,0\H,11,1.07731,9,122.12,8,1.90753,0\C,1,1.46377,2,118.988,3,-0.0910279,0\H,14,1.08257,1,116.275,2,140.663,0\C,14,1.32556,1,124.489,2,-38.6022,0\H,16,1.07682,14,121.819,1,178.76,0\H,16,1.07773,14,121.929,1,-2.33223,0\C,4,1.50207,2,119.482,1,177.519,0\H,19,1.09226,4,109.38,2,16.284,0\H,19,1.09276,4,110.473,2,134.523,0\C,5,1.50361,1,123.259,2,175.464,0\H,22,1.08835,5,111.312,1,22.8299,0\H,22,1.09332,5,108.918,1,141.513,0\C,19,1.53261,4,111.142,2,-104.13,0\H,25,1.09237,19,109.219,4,-58.2258,0\H,25,1.09278,19,108.903,4,58.9503,0\C,25,1.52614,19,111.909,4,-179.668,0\H,28,1.09149,25,108.94,19,58.1598,0\H,28,1.093,25,109.389,19,-59.4154,0\C,28,1.52699,25,111.656,19,179.531,0\H,31,1.09265,28,109.252,25,-62.2374,0\H,31,1.09305,28,108.616,25,54.7303,0\C,31,1.52908,28,113.408,25,175.632,0\H,34,1.09254,31,109.244,28,-54.7338,0\H,34,1.09276,31,108.519,28,-171.711,0\C,34,1.52434,31,113.228,28,67.4363,0\H,37,1.0868,34,111.095,31,-64.9453,0\H,37,1.08778,34,110.3,31,175.231,0\H,37,1.088,34,110.431,31,55.4999,0\C,22,1.53639,5,111.112,1,-99.4608,0\H,41,1.09259,22,108.217,5,-56.1705,0\H,41,1.09283,22,108.932,5,-173.057,0\C,41,1.52906,22,113.805,5,64.8481,0\H,44,1.09153,41,108.274,22,-164.262,0\H,44,1.09187,41,109.234,22,-47.1911,0\C,44,1.52742,41,112.951,22,74.882,0\H,47,1.09103,44,109.268,41,-52.6803,0\H,47,1.09311,44,109.297,41,64.9348,0\C,47,1.5284,44,113.089,41,-172.974,0\H,50,1.09245,47,108.852,44,56.4992,0\H,50,1.09304,47,108.533,44,173.318,0\C,50,1.52412,47,113.385,44,-65.6997,0\H,53,1.08671,50,111.029,47,65.1195,0\H,53,1.08787,50,110.304,47,-175.062,0\H,53,1.08815,50,110.479,47,-55.3273,0\\\@

 Total job time:  123.64s(wall), 123.30s(cpu) 
 Mon Feb  7 09:24:10 2022

        *************************************************************
        *                                                           *
        *  Thank you very much for using Q-Chem.  Have a nice day.  *
        *                                                           *
        *************************************************************


