
Running Job 1 of 1 fragments/B002/conf-0/spe_input.inp
qchem fragments/B002/conf-0/spe_input.inp_342620.0 /gpfs/fs0/scratch/a/aspuru/rhickman/descriptor_computation/qchem342620/ 0
/scinet/niagara/software/commercial/qc52/exe/qcprog.exe_s fragments/B002/conf-0/spe_input.inp_342620.0 /gpfs/fs0/scratch/a/aspuru/rhickman/descriptor_computation/qchem342620/
                  Welcome to Q-Chem
     A Quantum Leap Into The Future Of Chemistry


 Q-Chem 5.2, Q-Chem, Inc., Pleasanton, CA (2019)

 License issued to: SRG Alan Aspuru-Guzik, University of Toronto

 Yihan Shao,  Zhengting Gan,  E. Epifanovsky,  A. T. B. Gilbert,  M. Wormit,  
 J. Kussmann,  A. W. Lange,  A. Behn,  Jia Deng,  Xintian Feng,  D. Ghosh,  
 M. Goldey,  P. R. Horn,  L. D. Jacobson,  I. Kaliman,  T. Kus,  A. Landau,  
 Jie Liu,  E. I. Proynov,  R. M. Richard,  R. P. Steele,  E. J. Sundstrom,  
 H. L. Woodcock III,  P. M. Zimmerman,  D. Zuev,  B. Albrecht,  E. Alguire,  
 S. A. Baeppler,  D. Barton,  Z. Benda,  Y. A. Bernard,  E. J. Berquist,  
 K. B. Bravaya,  H. Burton,  D. Casanova,  Chun-Min Chang,  Yunqing Chen,  
 A. Chien,  K. D. Closser,  M. P. Coons,  S. Coriani,  S. Dasgupta,  
 A. L. Dempwolff,  M. Diedenhofen,  Hainam Do,  R. G. Edgar,  Po-Tung Fang,  
 S. Faraji,  S. Fatehi,  Qingguo Feng,  K. D. Fenk,  J. Fosso-Tande,  
 J. Gayvert,  Qinghui Ge,  A. Ghysels,  G. Gidofalvi,  J. Gomes,  
 J. Gonthier,  A. Gunina,  D. Hait,  M. W. D. Hanson-Heine,  
 P. H. P. Harbach,  A. W. Hauser,  M. F. Herbst,  J. E. Herr,  
 E. G. Hohenstein,  Z. C. Holden,  Kerwin Hui,  B. C. Huynh,  T.-C. Jagau,  
 Hyunjun Ji,  B. Kaduk,  K. Khistyaev,  Jaehoon Kim,  P. Klunzinger,  K. Koh,  
 D. Kosenkov,  L. Koulias,  T. Kowalczyk,  C. M. Krauter,  A. Kunitsa,  
 Ka Un Lao,  A. Laurent,  K. V. Lawler,  Joonho Lee,  D. Lefrancois,  
 S. Lehtola,  D. S. Levine,  Yi-Pei Li,  You-Sheng Lin,  Fenglai Liu,  
 E. Livshits,  A. Luenser,  P. Manohar,  E. Mansoor,  S. F. Manzer,  
 Shan-Ping Mao,  Yuezhi Mao,  N. Mardirossian,  A. V. Marenich,  
 T. Markovich,  L. A. Martinez-Martinez,  S. A. Maurer,  N. J. Mayhall,  
 S. C. McKenzie,  J.-M. Mewes,  P. Morgante,  A. F. Morrison,  
 J. W. Mullinax,  K. Nanda,  T. S. Nguyen-Beck,  R. Olivares-Amaya,  
 J. A. Parkhill,  Zheng Pei,  T. M. Perrine,  F. Plasser,  P. Pokhilko,  
 S. Prager,  A. Prociuk,  E. Ramos,  D. R. Rehn,  F. Rob,  M. Scheurer,  
 M. Schneider,  N. Sergueev,  S. M. Sharada,  S. Sharma,  D. W. Small,  
 T. Stauch,  T. Stein,  Yu-Chuan Su,  A. J. W. Thom,  A. Tkatchenko,  
 T. Tsuchimochi,  N. M. Tubman,  L. Vogt,  M. L. Vidal,  O. Vydrov,  
 M. A. Watson,  J. Wenzel,  M. de Wergifosse,  T. A. Wesolowski,  A. White,  
 J. Witte,  A. Yamada,  Jun Yang,  K. Yao,  S. Yeganeh,  S. R. Yost,  
 Zhi-Qiang You,  A. Zech,  Igor Ying Zhang,  Xing Zhang,  Yan Zhao,  
 Ying Zhu,  B. R. Brooks,  G. K. L. Chan,  C. J. Cramer,  M. S. Gordon,  
 W. J. Hehre,  A. Klamt,  M. W. Schmidt,  C. D. Sherrill,  D. G. Truhlar,  
 A. Aspuru-Guzik,  R. Baer,  A. T. Bell,  N. A. Besley,  Jeng-Da Chai,  
 A. E. DePrince, III,  R. A. DiStasio Jr.,  A. Dreuw,  B. D. Dunietz,  
 T. R. Furlani,  Chao-Ping Hsu,  Yousung Jung,  Jing Kong,  D. S. Lambrecht,  
 WanZhen Liang,  C. Ochsenfeld,  V. A. Rassolov,  L. V. Slipchenko,  
 J. E. Subotnik,  T. Van Voorhis,  J. M. Herbert,  A. I. Krylov,  
 P. M. W. Gill,  M. Head-Gordon

 Contributors to earlier versions of Q-Chem not listed above: 
 R. D. Adamson,  B. Austin,  J. Baker,  G. J. O. Beran,  K. Brandhorst,  
 S. T. Brown,  E. F. C. Byrd,  A. K. Chakraborty,  C.-L. Cheng,  
 Siu Hung Chien,  D. M. Chipman,  D. L. Crittenden,  H. Dachsel,  
 R. J. Doerksen,  A. D. Dutoi,  L. Fusti-Molnar,  W. A. Goddard III,  
 A. Golubeva-Zadorozhnaya,  S. R. Gwaltney,  G. Hawkins,  A. Heyden,  
 S. Hirata,  G. Kedziora,  F. J. Keil,  C. Kelley,  Jihan Kim,  R. A. King,  
 R. Z. Khaliullin,  P. P. Korambath,  W. Kurlancheek,  A. M. Lee,  M. S. Lee,  
 S. V. Levchenko,  Ching Yeh Lin,  D. Liotard,  R. C. Lochan,  I. Lotan,  
 P. E. Maslen,  N. Nair,  D. P. O'Neill,  D. Neuhauser,  E. Neuscamman,  
 C. M. Oana,  R. Olson,  B. Peters,  R. Peverati,  P. A. Pieniazek,  
 Y. M. Rhee,  J. Ritchie,  M. A. Rohrdanz,  E. Rosta,  N. J. Russ,  
 H. F. Schaefer III,  N. E. Schultz,  N. Shenvi,  A. C. Simmonett,  A. Sodt,  
 D. Stuck,  K. S. Thanthiriwatte,  V. Vanovschi,  Tao Wang,  A. Warshel,  
 C. F. Williams,  Q. Wu,  X. Xu,  W. Zhang

 Please cite Q-Chem as follows:
 Y. Shao et al., Mol. Phys. 113, 184-215 (2015)
 DOI: 10.1080/00268976.2014.952696

 Q-Chem 5.2.1 for Intel X86 EM64T Linux

 Parts of Q-Chem use Armadillo 8.300.2 (Tropical Shenanigans).
 http://arma.sourceforge.net/

 Q-Chem begins on Tue Feb  8 15:41:30 2022  

Host: 
0

     Scratch files written to /gpfs/fs0/scratch/a/aspuru/rhickman/descriptor_computation/qchem342620//
 Jul1719 |scratch|qcdevops|jenkins|workspace|build_RNUM -1
Processing $rem in /scinet/niagara/software/commercial/qc52/config/preferences:
	 MEM_TOTAL  4000 
NAlpha2: 88
NElect   88
Mult     1

Checking the input file for inconsistencies... 	...done.

--------------------------------------------------------------
User input:
--------------------------------------------------------------
$molecule
0 1
C        -3.34961787520000   -2.05340322000000   -0.00289150270000
C        -2.06559099220000   -1.70786934140000    0.00303454960000
C        -1.56144159660000   -0.35077435930000    0.00128610420000
C        -2.38147589910000    0.80925842040000    0.00087935780000
C        -1.67767080500000    1.96594582080000   -0.00015127730000
S         0.01830132080000    1.70463998750000   -0.00078020020000
C        -0.21373947260000   -0.01843321420000    0.00051322650000
C         0.90263821090000   -0.91714398880000   -0.00020550860000
C         2.18697176930000   -0.57518520550000   -0.00008417870000
F         2.68469056670000    0.65551091110000    0.00084623920000
F         3.18185410990000   -1.45921702070000   -0.00097035650000
H        -3.64696454030000   -3.08762159570000   -0.00088820870000
H        -4.14760532190000   -1.33184207200000   -0.01010384170000
H        -1.31931922520000   -2.49021910000000    0.00973680630000
H        -3.45504210410000    0.77802004610000    0.00172596080000
H        -2.05322980840000    2.96999010090000   -0.00055271240000
H         0.69932777400000   -1.97677676260000   -0.00113259770000
$end

$rem
BASIS = 6-31G*
GUI = 2
METHOD = B3LYP
PRINT_ORBITALS false
MOLDEN_FORMAT false
--------------------------------------------------------------
 ----------------------------------------------------------------
             Standard Nuclear Orientation (Angstroms)
    I     Atom           X                Y                Z
 ----------------------------------------------------------------
    1      C       3.2936491558     1.9375363631    -0.0028211124
    2      C       2.0004892495     1.6279292190     0.0030685858
    3      C       1.4587067205     0.2854147328     0.0013347057
    4      C       2.2460864054    -0.8970257864     0.0009837765
    5      C       1.5103121093    -2.0336451351    -0.0000439464
    6      S      -0.1777170504    -1.7251655412    -0.0007378322
    7      C       0.1022642924    -0.0092300181     0.0005229550
    8      C      -0.9886279459     0.9202506021    -0.0002557003
    9      C      -2.2819945552     0.6142255700    -0.0001708196
   10      F      -2.8138257004    -0.6021183549     0.0007714022
   11      F      -3.2518478330     1.5256462414    -0.0011123592
   12      H       3.6197091028     2.9630643516    -0.0008319294
   13      H       4.0712132044     1.1940114822    -0.0099887513
   14      H       1.2763152879     2.4307774990     0.0097264999
   15      H       3.3201061808    -0.8957252467     0.0018668585
   16      H       1.8577373996    -3.0477679961    -0.0004086558
   17      H      -0.7558591586     1.9738043060    -0.0012007604
 ----------------------------------------------------------------
 Molecular Point Group                 C1    NOp =  1
 Largest Abelian Subgroup              C1    NOp =  1
 Nuclear Repulsion Energy =         662.41594300 hartrees
 There are       44 alpha and       44 beta electrons
 Requested basis set is 6-31G(d)
 There are 57 shells and 181 basis functions

 Total QAlloc Memory Limit   4000 MB
 Mega-Array Size       188 MB
 MEM_STATIC part       192 MB
 A cutoff of  1.0D-08 yielded   1178 shell pairs
 There are     12682 function pairs
 Smallest overlap matrix eigenvalue = 8.36E-04

 Scale SEOQF with 1.000000e-01/1.000000e-01/1.000000e+00

 Standard Electronic Orientation quadrupole field applied
 Nucleus-field energy     =     0.0000000269 hartrees
 Guess from superposition of atomic densities
 Warning:  Energy on first SCF cycle will be non-variational
 SAD guess density has 88.000000 electrons

 -----------------------------------------------------------------------
  General SCF calculation program by
  Eric Jon Sundstrom, Paul Horn, Yuezhi Mao, Dmitri Zuev, Alec White,
  David Stuck, Shaama M.S., Shane Yost, Joonho Lee, David Small,
  Daniel Levine, Susi Lehtola, Hugh Burton, Evgeny Epifanovsky,
  Bang C. Huynh
 -----------------------------------------------------------------------
 Exchange:     0.2000 Hartree-Fock + 0.0800 Slater + 0.7200 B88
 Correlation:  0.1900 VWN1RPA + 0.8100 LYP
 Using SG-1 standard quadrature grid
 A restricted SCF calculation will be
 performed using DIIS
 SCF converges when DIIS error is below 1.0e-05
 ---------------------------------------
  Cycle       Energy         DIIS error
 ---------------------------------------
    1    -908.7530256633      5.85e-02  
    2    -906.0491334480      7.17e-03  
    3    -905.6320253476      1.17e-02  
    4    -906.2513221421      2.04e-03  
    5    -906.2691991943      6.68e-04  
    6    -906.2705103242      3.55e-04  
    7    -906.2710146993      6.94e-05  
    8    -906.2710346279      2.46e-05  
    9    -906.2710368520      9.54e-06  Convergence criterion met
 ---------------------------------------
 SCF time:   CPU 19.77s  wall 20.00s 
 SCF   energy in the final basis set =     -906.2710368520
 Total energy in the final basis set =     -906.2710368520
 
 --------------------------------------------------------------
 
                    Orbital Energies (a.u.)
 --------------------------------------------------------------
 
 Alpha MOs
 -- Occupied --
-88.9083 -24.7485 -24.7389 -10.3603 -10.2296 -10.2137 -10.2132 -10.2008
-10.1972 -10.1913 -10.1831  -7.9701  -5.9342  -5.9303  -5.9271  -1.2891
 -1.2294  -0.8950  -0.8123  -0.7967  -0.7262  -0.7200  -0.6444  -0.6074
 -0.5874  -0.5782  -0.5352  -0.5229  -0.5146  -0.4969  -0.4597  -0.4450
 -0.4359  -0.4291  -0.4217  -0.4059  -0.3982  -0.3803  -0.3649  -0.3392
 -0.3065  -0.3027  -0.2373  -0.2052
 -- Virtual --
 -0.0439   0.0058   0.0332   0.0541   0.0811   0.1042   0.1171   0.1309
  0.1356   0.1466   0.1607   0.1825   0.2100   0.2218   0.2714   0.2750
  0.2904   0.3271   0.3615   0.3710   0.3760   0.4030   0.4403   0.4637
  0.4761   0.4953   0.5095   0.5182   0.5207   0.5627   0.5708   0.5761
  0.5874   0.5893   0.5902   0.6179   0.6198   0.6642   0.6820   0.6872
  0.7129   0.7186   0.7786   0.8086   0.8155   0.8282   0.8646   0.8735
  0.8774   0.8868   0.9092   0.9248   0.9382   0.9541   0.9859   1.0088
  1.0311   1.0434   1.0695   1.0995   1.1275   1.1529   1.1600   1.1926
  1.1992   1.2271   1.2286   1.2826   1.2947   1.3245   1.3690   1.3925
  1.3938   1.4216   1.4330   1.4633   1.4806   1.4901   1.5072   1.5667
  1.6073   1.6711   1.6837   1.7127   1.7756   1.7771   1.7824   1.8177
  1.8317   1.8668   1.8922   1.9136   1.9391   1.9642   1.9849   1.9992
  2.0098   2.0363   2.0468   2.1042   2.1419   2.1594   2.1708   2.2229
  2.2307   2.2550   2.2815   2.3152   2.3195   2.4727   2.4905   2.5153
  2.5228   2.5465   2.5761   2.6031   2.6402   2.7328   2.7687   2.8554
  2.8672   2.9972   3.0751   3.1396   3.2290   3.2677   3.9538   4.0674
  4.0921   4.1295   4.1567   4.2291   4.2919   4.4377   4.6257   4.7981
  5.2976
 --------------------------------------------------------------
 
          Ground-State Mulliken Net Atomic Charges

     Atom                 Charge (a.u.)
  ----------------------------------------
      1 C                    -0.353632
      2 C                    -0.096148
      3 C                     0.144770
      4 C                    -0.128199
      5 C                    -0.353113
      6 S                     0.267918
      7 C                    -0.225268
      8 C                    -0.223312
      9 C                     0.537988
     10 F                    -0.227664
     11 F                    -0.246414
     12 H                     0.144722
     13 H                     0.142672
     14 H                     0.126938
     15 H                     0.142177
     16 H                     0.172974
     17 H                     0.173590
  ----------------------------------------
  Sum of atomic charges =     0.000000

 -----------------------------------------------------------------
                    Cartesian Multipole Moments
 -----------------------------------------------------------------
    Charge (ESU x 10^10)
                 0.0000
    Dipole Moment (Debye)
         X       1.3524      Y       0.3103      Z       0.0004
       Tot       1.3875
    Quadrupole Moments (Debye-Ang)
        XX     -66.4811     XY      -1.6667     YY     -62.5974
        XZ      -0.0102     YZ       0.0116     ZZ     -71.6869
    Octopole Moments (Debye-Ang^2)
       XXX     -17.8425    XXY      -3.9107    XYY      -3.1439
       YYY      -0.0739    XXZ      -0.0663    XYZ       0.0011
       YYZ       0.0269    XZZ     -23.9579    YZZ       1.1800
       ZZZ      -0.0040
    Hexadecapole Moments (Debye-Ang^3)
      XXXX   -1681.9610   XXXY     -12.5929   XXYY    -421.3932
      XYYY     -31.7223   YYYY    -801.3535   XXXZ      -0.3156
      XXYZ      -0.0470   XYYZ       0.0435   YYYZ       0.1115
      XXZZ    -315.6554   XYZZ     -13.4609   YYZZ    -172.0355
      XZZZ       0.0108   YZZZ      -0.0081   ZZZZ     -72.9701
 -----------------------------------------------------------------
Archival summary:
1\1\nia2015.scinet.local\SP\ProcedureUnspecified\6-31G*\1286\rhickman\TueFeb815:41:512022TueFeb815:41:512022\0\\#,ProcedureUnspecified,6-31G*,\\0,1\S\C,1,1.71598\H,2,1.07198,1,119.267\C,2,1.35398,1,112.56,3,-179.998,0\H,4,1.07402,2,122.986,1,179.979,0\C,4,1.42061,2,113.424,1,0.00360416,0\C,6,1.38808,4,111.404,2,-0,0\C,7,1.43317,6,127.312,4,-179.958,0\H,8,1.07896,7,117.974,6,0.0586949,0\C,8,1.32908,7,126.256,6,-179.954,0\F,10,1.32753,8,126.929,7,0.00683432,0\F,10,1.3309,8,123.467,7,-179.99,0\C,6,1.44771,4,124.364,2,179.968,0\H,13,1.08122,6,115.972,4,-179.611,0\C,13,1.32972,6,125.44,4,0.390111,0\H,15,1.07587,13,122.819,6,0.0257,0\H,15,1.07612,13,121.101,6,-179.988,0\\\@

 Total job time:  21.13s(wall), 19.92s(cpu) 
 Tue Feb  8 15:41:51 2022

        *************************************************************
        *                                                           *
        *  Thank you very much for using Q-Chem.  Have a nice day.  *
        *                                                           *
        *************************************************************


