
Running Job 1 of 1 fragments/A013/conf-0/spe_input.inp
qchem fragments/A013/conf-0/spe_input.inp_272700.0 /gpfs/fs0/scratch/a/aspuru/rhickman/descriptor_computation/qchem272700/ 0
/scinet/niagara/software/commercial/qc52/exe/qcprog.exe_s fragments/A013/conf-0/spe_input.inp_272700.0 /gpfs/fs0/scratch/a/aspuru/rhickman/descriptor_computation/qchem272700/
                  Welcome to Q-Chem
     A Quantum Leap Into The Future Of Chemistry


 Q-Chem 5.2, Q-Chem, Inc., Pleasanton, CA (2019)

 License issued to: SRG Alan Aspuru-Guzik, University of Toronto

 Yihan Shao,  Zhengting Gan,  E. Epifanovsky,  A. T. B. Gilbert,  M. Wormit,  
 J. Kussmann,  A. W. Lange,  A. Behn,  Jia Deng,  Xintian Feng,  D. Ghosh,  
 M. Goldey,  P. R. Horn,  L. D. Jacobson,  I. Kaliman,  T. Kus,  A. Landau,  
 Jie Liu,  E. I. Proynov,  R. M. Richard,  R. P. Steele,  E. J. Sundstrom,  
 H. L. Woodcock III,  P. M. Zimmerman,  D. Zuev,  B. Albrecht,  E. Alguire,  
 S. A. Baeppler,  D. Barton,  Z. Benda,  Y. A. Bernard,  E. J. Berquist,  
 K. B. Bravaya,  H. Burton,  D. Casanova,  Chun-Min Chang,  Yunqing Chen,  
 A. Chien,  K. D. Closser,  M. P. Coons,  S. Coriani,  S. Dasgupta,  
 A. L. Dempwolff,  M. Diedenhofen,  Hainam Do,  R. G. Edgar,  Po-Tung Fang,  
 S. Faraji,  S. Fatehi,  Qingguo Feng,  K. D. Fenk,  J. Fosso-Tande,  
 J. Gayvert,  Qinghui Ge,  A. Ghysels,  G. Gidofalvi,  J. Gomes,  
 J. Gonthier,  A. Gunina,  D. Hait,  M. W. D. Hanson-Heine,  
 P. H. P. Harbach,  A. W. Hauser,  M. F. Herbst,  J. E. Herr,  
 E. G. Hohenstein,  Z. C. Holden,  Kerwin Hui,  B. C. Huynh,  T.-C. Jagau,  
 Hyunjun Ji,  B. Kaduk,  K. Khistyaev,  Jaehoon Kim,  P. Klunzinger,  K. Koh,  
 D. Kosenkov,  L. Koulias,  T. Kowalczyk,  C. M. Krauter,  A. Kunitsa,  
 Ka Un Lao,  A. Laurent,  K. V. Lawler,  Joonho Lee,  D. Lefrancois,  
 S. Lehtola,  D. S. Levine,  Yi-Pei Li,  You-Sheng Lin,  Fenglai Liu,  
 E. Livshits,  A. Luenser,  P. Manohar,  E. Mansoor,  S. F. Manzer,  
 Shan-Ping Mao,  Yuezhi Mao,  N. Mardirossian,  A. V. Marenich,  
 T. Markovich,  L. A. Martinez-Martinez,  S. A. Maurer,  N. J. Mayhall,  
 S. C. McKenzie,  J.-M. Mewes,  P. Morgante,  A. F. Morrison,  
 J. W. Mullinax,  K. Nanda,  T. S. Nguyen-Beck,  R. Olivares-Amaya,  
 J. A. Parkhill,  Zheng Pei,  T. M. Perrine,  F. Plasser,  P. Pokhilko,  
 S. Prager,  A. Prociuk,  E. Ramos,  D. R. Rehn,  F. Rob,  M. Scheurer,  
 M. Schneider,  N. Sergueev,  S. M. Sharada,  S. Sharma,  D. W. Small,  
 T. Stauch,  T. Stein,  Yu-Chuan Su,  A. J. W. Thom,  A. Tkatchenko,  
 T. Tsuchimochi,  N. M. Tubman,  L. Vogt,  M. L. Vidal,  O. Vydrov,  
 M. A. Watson,  J. Wenzel,  M. de Wergifosse,  T. A. Wesolowski,  A. White,  
 J. Witte,  A. Yamada,  Jun Yang,  K. Yao,  S. Yeganeh,  S. R. Yost,  
 Zhi-Qiang You,  A. Zech,  Igor Ying Zhang,  Xing Zhang,  Yan Zhao,  
 Ying Zhu,  B. R. Brooks,  G. K. L. Chan,  C. J. Cramer,  M. S. Gordon,  
 W. J. Hehre,  A. Klamt,  M. W. Schmidt,  C. D. Sherrill,  D. G. Truhlar,  
 A. Aspuru-Guzik,  R. Baer,  A. T. Bell,  N. A. Besley,  Jeng-Da Chai,  
 A. E. DePrince, III,  R. A. DiStasio Jr.,  A. Dreuw,  B. D. Dunietz,  
 T. R. Furlani,  Chao-Ping Hsu,  Yousung Jung,  Jing Kong,  D. S. Lambrecht,  
 WanZhen Liang,  C. Ochsenfeld,  V. A. Rassolov,  L. V. Slipchenko,  
 J. E. Subotnik,  T. Van Voorhis,  J. M. Herbert,  A. I. Krylov,  
 P. M. W. Gill,  M. Head-Gordon

 Contributors to earlier versions of Q-Chem not listed above: 
 R. D. Adamson,  B. Austin,  J. Baker,  G. J. O. Beran,  K. Brandhorst,  
 S. T. Brown,  E. F. C. Byrd,  A. K. Chakraborty,  C.-L. Cheng,  
 Siu Hung Chien,  D. M. Chipman,  D. L. Crittenden,  H. Dachsel,  
 R. J. Doerksen,  A. D. Dutoi,  L. Fusti-Molnar,  W. A. Goddard III,  
 A. Golubeva-Zadorozhnaya,  S. R. Gwaltney,  G. Hawkins,  A. Heyden,  
 S. Hirata,  G. Kedziora,  F. J. Keil,  C. Kelley,  Jihan Kim,  R. A. King,  
 R. Z. Khaliullin,  P. P. Korambath,  W. Kurlancheek,  A. M. Lee,  M. S. Lee,  
 S. V. Levchenko,  Ching Yeh Lin,  D. Liotard,  R. C. Lochan,  I. Lotan,  
 P. E. Maslen,  N. Nair,  D. P. O'Neill,  D. Neuhauser,  E. Neuscamman,  
 C. M. Oana,  R. Olson,  B. Peters,  R. Peverati,  P. A. Pieniazek,  
 Y. M. Rhee,  J. Ritchie,  M. A. Rohrdanz,  E. Rosta,  N. J. Russ,  
 H. F. Schaefer III,  N. E. Schultz,  N. Shenvi,  A. C. Simmonett,  A. Sodt,  
 D. Stuck,  K. S. Thanthiriwatte,  V. Vanovschi,  Tao Wang,  A. Warshel,  
 C. F. Williams,  Q. Wu,  X. Xu,  W. Zhang

 Please cite Q-Chem as follows:
 Y. Shao et al., Mol. Phys. 113, 184-215 (2015)
 DOI: 10.1080/00268976.2014.952696

 Q-Chem 5.2.1 for Intel X86 EM64T Linux

 Parts of Q-Chem use Armadillo 8.300.2 (Tropical Shenanigans).
 http://arma.sourceforge.net/

 Q-Chem begins on Mon Feb  7 09:55:40 2022  

Host: 
0

     Scratch files written to /gpfs/fs0/scratch/a/aspuru/rhickman/descriptor_computation/qchem272700//
 Jul1719 |scratch|qcdevops|jenkins|workspace|build_RNUM -1
Processing $rem in /scinet/niagara/software/commercial/qc52/config/preferences:
	 MEM_TOTAL  4000 
NAlpha2: 172
NElect   172
Mult     1

Checking the input file for inconsistencies... 	...done.

--------------------------------------------------------------
User input:
--------------------------------------------------------------
$molecule
0 1
F         6.56109998730000   -0.05428871800000   -0.28679515360000
C         5.29197452750000   -0.33853656270000   -0.00414636180000
F         5.25991981750000   -1.23058300510000    0.97817434020000
C         4.26843174020000    0.21469766060000   -0.63883129950000
C         2.84765946730000   -0.00697629220000   -0.43014360660000
C         1.94702349760000    0.68961408590000   -1.24172793670000
C         0.58641654790000    0.52452385980000   -1.10300160630000
C         0.08764077180000   -0.34147845820000   -0.13221015050000
N        -1.29244617550000   -0.52294823340000    0.01111905920000
C        -2.27946843630000    0.44579145930000    0.06059047320000
C        -2.01642295960000    1.87480438370000    0.14624046480000
C        -2.91206415020000    2.75400370050000   -0.46094930410000
C        -2.70613659450000    4.11793249950000   -0.38907087880000
C        -1.61083047350000    4.62105009440000    0.29466344280000
C        -0.73096045520000    3.75362944260000    0.92070856500000
C        -0.92981988490000    2.38736321830000    0.85250013650000
N        -3.48100935380000   -0.05913261420000    0.07698286840000
C        -1.95035828520000   -1.73495988400000   -0.00220714230000
C        -3.32836312480000   -1.41740438690000    0.03734100470000
C        -4.28188146660000   -2.42938922740000    0.02548255610000
C        -3.83203051400000   -3.73090950860000   -0.03806896350000
C        -2.47024010350000   -4.03307101190000   -0.09993515190000
C        -1.50637748700000   -3.04433659630000   -0.08787894320000
C         0.97351519700000   -1.04010151500000    0.68351282360000
C         2.33561956120000   -0.87637561090000    0.53537717000000
H         4.53687009890000    0.92029820100000   -1.41185105160000
H         2.32421347540000    1.36316043470000   -1.99668919980000
H        -0.09844220410000    1.06215599840000   -1.74128631170000
H        -3.76271016780000    2.34489306680000   -0.98314193810000
H        -3.40144021840000    4.79243281460000   -0.86644812010000
H        -1.44820730110000    5.68730459880000    0.34848887950000
H         0.11303788800000    4.14302226470000    1.47092413590000
H        -0.25138854560000    1.72220578890000    1.36649822220000
H        -5.33211688810000   -2.18920637190000    0.05964931470000
H        -4.54604292810000   -4.54105643630000   -0.04827868110000
H        -2.16355687970000   -5.06669781480000   -0.16063789060000
H        -0.45530390780000   -3.28405677720000   -0.14996384940000
H         0.58683202710000   -1.69968009750000    1.44577523070000
H         2.99871372740000   -1.42622724130000    1.18241933690000
$end

$rem
BASIS = 6-31G*
GUI = 2
METHOD = B3LYP
PRINT_ORBITALS false
MOLDEN_FORMAT false
--------------------------------------------------------------
 ----------------------------------------------------------------
             Standard Nuclear Orientation (Angstroms)
    I     Atom           X                Y                Z
 ----------------------------------------------------------------
    1      F       6.6253475676     0.1479940349     0.2738003069
    2      C       5.3526013683     0.4175503247    -0.0069542623
    3      F       5.3087955910     1.3111241911    -0.9874312486
    4      C       4.3364492650    -0.1492119729     0.6276702836
    5      C       2.9128970967     0.0558051135     0.4209072203
    6      C       2.0215519322    -0.6531831256     1.2320125797
    7      C       0.6589143789    -0.5041640087     1.0950335660
    8      C       0.1487463696     0.3577400196     0.1265174905
    9      N      -1.2335713082     0.5229128246    -0.0150109734
   10      C      -2.2089437793    -0.4575076601    -0.0654210131
   11      C      -1.9288517277    -1.8830834784    -0.1542399911
   12      C      -2.8132272101    -2.7741954766     0.4520960619
   13      C      -2.5910156982    -4.1354056075     0.3772398103
   14      C      -1.4904750642    -4.6239562940    -0.3086493756
   15      C      -0.6217482246    -3.7447734931    -0.9338482335
   16      C      -0.8369240856    -2.3811338439    -0.8626645690
   17      N      -3.4164769296     0.0329838012    -0.0795427912
   18      C      -1.9059728321     1.7269075304     0.0014544988
   19      C      -3.2801070300     1.3929080344    -0.0373066985
   20      C      -4.2456933595     2.3933440508    -0.0224075135
   21      C      -3.8114335695     3.7000417015     0.0433146439
   22      C      -2.4533040947     4.0184086906     0.1043794573
   23      C      -1.4776535956     3.0413459887     0.0893188962
   24      C       1.0253022611     1.0685918645    -0.6887070595
   25      C       2.3894307357     0.9209359984    -0.5423175363
   26      H       4.6141607176    -0.8530936973     1.3989793522
   27      H       2.4076030794    -1.3236707653     1.9852152808
   28      H      -0.0187617844    -1.0512656836     1.7329379214
   29      H      -3.6681684753    -2.3763815282     0.9759994885
   30      H      -3.2776636740    -4.8191666568     0.8539705727
   31      H      -1.3151194772    -5.6880705588    -0.3648044422
   32      H       0.2262793490    -4.1228944771    -1.4857276620
   33      H      -0.1670739010    -1.7068438345    -1.3760175017
   34      H      -5.2930051640     2.1406365036    -0.0559707661
   35      H      -4.5351098627     4.5015340938     0.0559074228
   36      H      -2.1589883426     5.0555192896     0.1668585209
   37      H      -0.4294684819     3.2935447311     0.1507984162
   38      H       0.6299185517     1.7250134833    -1.4492293395
   39      H       3.0451878844     1.4800125466    -1.1889319729
 ----------------------------------------------------------------
 Molecular Point Group                 C1    NOp =  1
 Largest Abelian Subgroup              C1    NOp =  1
 Nuclear Repulsion Energy =        1988.29751672 hartrees
 There are       86 alpha and       86 beta electrons
 Requested basis set is 6-31G(d)
 There are 128 shells and 403 basis functions

 Total QAlloc Memory Limit   4000 MB
 Mega-Array Size       188 MB
 MEM_STATIC part       192 MB
 A cutoff of  1.0D-08 yielded   3890 shell pairs
 There are     41493 function pairs
 Smallest overlap matrix eigenvalue = 3.50E-04

 Scale SEOQF with 1.000000e-02/1.000000e-02/1.000000e-01

 Standard Electronic Orientation quadrupole field applied
 Nucleus-field energy     =     0.0000000057 hartrees
 Guess from superposition of atomic densities
 Warning:  Energy on first SCF cycle will be non-variational
 SAD guess density has 172.000000 electrons

 -----------------------------------------------------------------------
  General SCF calculation program by
  Eric Jon Sundstrom, Paul Horn, Yuezhi Mao, Dmitri Zuev, Alec White,
  David Stuck, Shaama M.S., Shane Yost, Joonho Lee, David Small,
  Daniel Levine, Susi Lehtola, Hugh Burton, Evgeny Epifanovsky,
  Bang C. Huynh
 -----------------------------------------------------------------------
 Exchange:     0.2000 Hartree-Fock + 0.0800 Slater + 0.7200 B88
 Correlation:  0.1900 VWN1RPA + 0.8100 LYP
 Using SG-1 standard quadrature grid
 A restricted SCF calculation will be
 performed using DIIS
 SCF converges when DIIS error is below 1.0e-05
 ---------------------------------------
  Cycle       Energy         DIIS error
 ---------------------------------------
    1   -1124.4708025524      4.17e-02  
    2   -1117.4780114791      4.14e-03  
    3   -1117.1405954772      5.93e-03  
    4   -1117.7905144053      1.54e-03  
    5   -1117.8346916528      5.28e-04  
    6   -1117.8398768136      2.19e-04  
    7   -1117.8408588706      4.56e-05  
    8   -1117.8408910939      2.19e-05  
    9   -1117.8409011102      4.58e-06  Convergence criterion met
 ---------------------------------------
 SCF time:   CPU 135.27s  wall 136.00s 
 SCF   energy in the final basis set =    -1117.8409011102
 Total energy in the final basis set =    -1117.8409011102
 
 --------------------------------------------------------------
 
                    Orbital Energies (a.u.)
 --------------------------------------------------------------
 
 Alpha MOs
 -- Occupied --
-24.7534 -24.7425 -14.3948 -14.3090 -10.3662 -10.2517 -10.2433 -10.2187
-10.2179 -10.2122 -10.2049 -10.2046 -10.2036 -10.2027 -10.2017 -10.2012
-10.1924 -10.1912 -10.1902 -10.1894 -10.1885 -10.1875 -10.1820 -10.1795
-10.1780  -1.2945  -1.2333  -1.0307  -0.9142  -0.8724  -0.8663  -0.8428
 -0.8144  -0.7776  -0.7680  -0.7566  -0.7514  -0.7364  -0.7210  -0.6666
 -0.6449  -0.6360  -0.6308  -0.6159  -0.5939  -0.5905  -0.5810  -0.5776
 -0.5496  -0.5400  -0.5278  -0.5207  -0.5023  -0.4942  -0.4768  -0.4731
 -0.4635  -0.4543  -0.4494  -0.4476  -0.4430  -0.4422  -0.4378  -0.4353
 -0.4262  -0.4239  -0.4191  -0.4126  -0.3952  -0.3887  -0.3743  -0.3647
 -0.3610  -0.3561  -0.3500  -0.3471  -0.3399  -0.3216  -0.2963  -0.2741
 -0.2685  -0.2629  -0.2534  -0.2392  -0.2149  -0.2118
 -- Virtual --
 -0.0464  -0.0314  -0.0195   0.0028   0.0139   0.0274   0.0507   0.0738
  0.0807   0.0963   0.1048   0.1124   0.1327   0.1430   0.1476   0.1497
  0.1562   0.1601   0.1662   0.1721   0.1746   0.1842   0.1857   0.1892
  0.1913   0.1968   0.1994   0.2183   0.2365   0.2542   0.2669   0.2750
  0.2846   0.2990   0.3035   0.3068   0.3155   0.3278   0.3283   0.3404
  0.3436   0.3614   0.3829   0.3990   0.4101   0.4147   0.4420   0.4664
  0.4691   0.4859   0.4931   0.5017   0.5159   0.5233   0.5249   0.5296
  0.5311   0.5361   0.5429   0.5497   0.5533   0.5597   0.5644   0.5692
  0.5722   0.5760   0.5784   0.5839   0.5886   0.5902   0.5938   0.6003
  0.6027   0.6073   0.6110   0.6121   0.6154   0.6203   0.6259   0.6270
  0.6351   0.6388   0.6469   0.6507   0.6571   0.6688   0.6800   0.6865
  0.7015   0.7134   0.7237   0.7597   0.7644   0.7747   0.7802   0.7897
  0.8101   0.8200   0.8232   0.8235   0.8324   0.8352   0.8413   0.8440
  0.8469   0.8511   0.8572   0.8618   0.8663   0.8758   0.8801   0.9023
  0.9088   0.9164   0.9264   0.9345   0.9447   0.9512   0.9585   0.9733
  0.9812   0.9886   1.0018   1.0050   1.0125   1.0241   1.0375   1.0482
  1.0678   1.0810   1.1011   1.1104   1.1168   1.1223   1.1442   1.1503
  1.1520   1.1648   1.1761   1.1806   1.1946   1.1997   1.2096   1.2137
  1.2241   1.2247   1.2568   1.2655   1.2743   1.2935   1.3048   1.3300
  1.3413   1.3499   1.3640   1.3780   1.3951   1.4013   1.4105   1.4221
  1.4265   1.4329   1.4389   1.4440   1.4567   1.4619   1.4668   1.4712
  1.4774   1.4851   1.4911   1.4932   1.4973   1.5053   1.5107   1.5128
  1.5225   1.5634   1.5773   1.6112   1.6622   1.7067   1.7176   1.7430
  1.7603   1.7730   1.7740   1.7876   1.8030   1.8052   1.8195   1.8273
  1.8284   1.8393   1.8473   1.8591   1.8669   1.8698   1.8963   1.8968
  1.9111   1.9227   1.9312   1.9388   1.9526   1.9634   1.9806   1.9822
  1.9904   1.9954   2.0068   2.0126   2.0218   2.0239   2.0282   2.0551
  2.0590   2.0684   2.0824   2.0912   2.1172   2.1332   2.1402   2.1438
  2.1479   2.1545   2.1602   2.1759   2.1917   2.2067   2.2261   2.2310
  2.2338   2.2661   2.2713   2.2759   2.2830   2.2936   2.3059   2.3119
  2.3211   2.3231   2.3422   2.3473   2.3716   2.4006   2.4058   2.4540
  2.4820   2.5155   2.5302   2.5351   2.5684   2.5794   2.5868   2.6046
  2.6119   2.6171   2.6469   2.6514   2.6654   2.6712   2.6777   2.6861
  2.7045   2.7135   2.7238   2.7403   2.7587   2.7624   2.7662   2.7827
  2.7859   2.8069   2.8517   2.8656   2.8767   2.9060   2.9089   2.9368
  2.9583   3.0115   3.0449   3.1001   3.1492   3.2141   3.2456   3.2950
  3.3241   3.4555   3.4822   3.5310   4.0674   4.0985   4.1029   4.1052
  4.1127   4.1248   4.1327   4.1431   4.1612   4.1853   4.2611   4.2780
  4.3067   4.3144   4.3858   4.4026   4.4248   4.4312   4.5108   4.5479
  4.7144   4.7521   4.7946   4.8417   5.2857
 --------------------------------------------------------------
 
          Ground-State Mulliken Net Atomic Charges

     Atom                 Charge (a.u.)
  ----------------------------------------
      1 F                    -0.244758
      2 C                     0.547214
      3 F                    -0.232885
      4 C                    -0.300625
      5 C                     0.205603
      6 C                    -0.207606
      7 C                    -0.132617
      8 C                     0.252485
      9 N                    -0.659388
     10 C                     0.406458
     11 C                     0.087327
     12 C                    -0.147534
     13 C                    -0.138832
     14 C                    -0.119625
     15 C                    -0.141267
     16 C                    -0.157073
     17 N                    -0.553137
     18 C                     0.318861
     19 C                     0.240763
     20 C                    -0.181104
     21 C                    -0.140489
     22 C                    -0.149322
     23 C                    -0.166265
     24 C                    -0.160574
     25 C                    -0.209995
     26 H                     0.163129
     27 H                     0.138578
     28 H                     0.156991
     29 H                     0.156200
     30 H                     0.133469
     31 H                     0.130557
     32 H                     0.131622
     33 H                     0.147549
     34 H                     0.137532
     35 H                     0.123629
     36 H                     0.125198
     37 H                     0.136476
     38 H                     0.156089
     39 H                     0.147366
  ----------------------------------------
  Sum of atomic charges =     0.000000

 -----------------------------------------------------------------
                    Cartesian Multipole Moments
 -----------------------------------------------------------------
    Charge (ESU x 10^10)
                 0.0000
    Dipole Moment (Debye)
         X       2.5528      Y      -0.9180      Z       0.7217
       Tot       2.8072
    Quadrupole Moments (Debye-Ang)
        XX    -148.3737     XY      -2.1231     YY    -126.9591
        XZ      -1.4843     YZ      -3.5654     ZZ    -139.2661
    Octopole Moments (Debye-Ang^2)
       XXX      63.2009    XXY       2.5159    XYY       9.2074
       YYY     -10.9190    XXZ      19.8519    XYZ       5.0353
       YYZ      -0.1427    XZZ      45.4251    YZZ      -5.2119
       ZZZ      -3.9689
    Hexadecapole Moments (Debye-Ang^3)
      XXXX   -8052.5714   XXXY     -68.0904   XXYY   -1937.0401
      XYYY      77.4342   YYYY   -4144.0160   XXXZ     -33.9956
      XXYZ     -54.6720   XYYZ     -50.1871   YYYZ      -7.9935
      XXZZ   -1371.0914   XYZZ      26.5032   YYZZ    -871.4652
      XZZZ     -29.3202   YZZZ     -30.0309   ZZZZ    -434.4325
 -----------------------------------------------------------------
Archival summary:
1\1\nia0231.scinet.local\SP\ProcedureUnspecified\6-31G*\222114\rhickman\MonFeb709:57:562022MonFeb709:57:562022\0\\#,ProcedureUnspecified,6-31G*,\\0,1\N\C,1,1.37913\C,1,1.38388,2,105.979\N,3,1.30343,1,112.753,2,-0.0883233,0\C,4,1.3674,3,106.351,1,-0.0236209,0\C,2,1.38525,1,132.718,3,177.656,0\H,6,1.07985,2,121.692,1,0.836868,0\C,6,1.38086,2,116.977,1,-178.721,0\H,8,1.07987,6,119.184,2,-179.688,0\C,5,1.39049,4,130.288,3,-179.529,0\H,10,1.07789,5,120.378,4,-0.628712,0\C,10,1.37854,5,117.629,4,179.037,0\H,12,1.07993,10,119.535,5,179.957,0\C,1,1.39933,2,125.695,3,-174.326,0\C,14,1.39221,1,120.163,2,-52.7555,0\H,15,1.07964,14,119.495,1,-1.80023,0\C,15,1.37988,14,120.376,1,179.235,0\H,17,1.07736,15,118.85,14,179.76,0\C,14,1.39326,1,120.334,2,126.365,0\H,19,1.07958,14,119.63,1,0.451302,0\C,19,1.37759,14,119.883,1,-179.582,0\H,21,1.07977,19,119.353,14,-179.981,0\C,17,1.39652,15,120.665,14,0.16863,0\C,23,1.45303,17,123.559,15,179.901,0\H,24,1.0805,23,116.443,17,-179.416,0\C,24,1.32534,23,128.512,17,0.693769,0\F,26,1.3273,24,128.047,23,-0.031861,0\F,26,1.33093,24,123.064,23,179.956,0\C,3,1.45554,1,124.088,2,177.302,0\C,29,1.39364,3,122.128,1,-34.4161,0\H,30,1.08023,29,120.288,3,-0.437193,0\C,30,1.38235,29,120.045,3,-179.124,0\H,32,1.08014,30,119.594,29,179.938,0\C,32,1.38511,30,120.35,29,0.292838,0\H,34,1.07993,32,120.009,30,-179.778,0\C,34,1.38575,32,119.85,30,0.846643,0\H,36,1.07995,34,120.015,32,179.145,0\C,36,1.38126,34,120.134,32,-0.802131,0\H,38,1.07873,36,121.148,34,179.583,0\\\@

 Total job time:  136.11s(wall), 135.72s(cpu) 
 Mon Feb  7 09:57:56 2022

        *************************************************************
        *                                                           *
        *  Thank you very much for using Q-Chem.  Have a nice day.  *
        *                                                           *
        *************************************************************


