
Running Job 1 of 1 tidas/B033/conf-4/spe_input.inp
qchem tidas/B033/conf-4/spe_input.inp_246251.0 /home/a/aspuru/seifridm/acdc_laser/descriptor_computation/qchem246251/ 0
/gpfs/fs1/scinet/niagara/software/commercial/qc54/exe/qcprog.exe_s tidas/B033/conf-4/spe_input.inp_246251.0 /home/a/aspuru/seifridm/acdc_laser/descriptor_computation/qchem246251/
                  Welcome to Q-Chem
     A Quantum Leap Into The Future Of Chemistry


 Q-Chem 5.4, Q-Chem, Inc., Pleasanton, CA (2021)

 License issued to: SRG Alan Aspuru-Guzik, University of Toronto

 E. Epifanovsky,  A. T. B. Gilbert,  Xintian Feng,  Joonho Lee,  Yuezhi Mao,  
 N. Mardirossian,  P. Pokhilko,  A. White,  M. Wormit,  M. P. Coons,  
 A. L. Dempwolff,  Zhengting Gan,  D. Hait,  P. R. Horn,  L. D. Jacobson,  
 I. Kaliman,  J. Kussmann,  A. W. Lange,  Ka Un Lao,  D. S. Levine,  Jie Liu,  
 S. C. McKenzie,  A. F. Morrison,  K. Nanda,  F. Plasser,  D. R. Rehn,  
 M. L. Vidal,  Zhi-Qiang You,  Ying Zhu,  B. Alam,  B. Albrecht,  
 A. Aldossary,  E. Alguire,  J. H. Andersen,  D. Barton,  K. Begam,  A. Behn,  
 Y. A. Bernard,  E. J. Berquist,  H. Burton,  A. Carreras,  K. Carter-Fenk,  
 Romit Chakraborty,  A. D. Chien,  K. D. Closser,  V. Cofer-Shabica,  
 S. Dasgupta,  Jia Deng,  M. de Wergifosse,  M. Diedenhofen,  Hainam Do,  
 S. Ehlert,  Po-Tung Fang,  S. Fatehi,  Qingguo Feng,  T. Friedhoff,  
 J. Gayvert,  Qinghui Ge,  G. Gidofalvi,  M. Goldey,  J. Gomes,  
 C. Gonzalez-Espinoza,  S. Gulania,  A. Gunina,  M. W. D. Hanson-Heine,  
 P. H. P. Harbach,  A. W. Hauser,  M. F. Herbst,  M. Hernandez Vera,  
 M. Hodecker,  Z. C. Holden,  S. Houck,  Xunkun Huang,  Kerwin Hui,  
 B. C. Huynh,  M. Ivanov,  Hyunjun Ji,  Hanjie Jiang,  B. Kaduk,  S. Kaehler,  
 K. Khistyaev,  Jaehoon Kim,  P. Klunzinger,  Z. Koczor-Benda,  
 Joong Hoon Koh,  D. Kosenkov,  L. Koulias,  T. Kowalczyk,  C. M. Krauter,  
 K. Kue,  A. Kunitsa,  T. Kus,  A. Landau,  K. V. Lawler,  D. Lefrancois,  
 S. Lehtola,  Rain Li,  Yi-Pei Li,  Jiashu Liang,  M. Liebenthal,  
 Hung-Hsuan Lin,  You-Sheng Lin,  Fenglai Liu,  Kuan-Yu Liu,  
 M. Loipersberger,  A. Luenser,  A. Manjanath,  P. Manohar,  E. Mansoor,  
 S. F. Manzer,  Shan-Ping Mao,  A. V. Marenich,  T. Markovich,  S. Mason,  
 S. A. Maurer,  P. F. McLaughlin,  M. F. S. J. Menger,  J.-M. Mewes,  
 S. A. Mewes,  P. Morgante,  J. W. Mullinax,  K. J. Oosterbaan,  G. Paran,  
 Alexander C. Paul,  Suranjan K. Paul,  F. Pavosevic,  Zheng Pei,  S. Prager,  
 E. I. Proynov,  E. Ramos,  B. Rana,  A. E. Rask,  A. Rettig,  R. M. Richard,  
 F. Rob,  E. Rossomme,  T. Scheele,  M. Scheurer,  M. Schneider,  
 N. Sergueev,  S. M. Sharada,  W. Skomorowski,  D. W. Small,  C. J. Stein,  
 Yu-Chuan Su,  E. J. Sundstrom,  Zhen Tao,  J. Thirman,  T. Tsuchimochi,  
 N. M. Tubman,  S. P. Veccham,  O. Vydrov,  J. Wenzel,  J. Witte,  A. Yamada,  
 Kun Yao,  S. Yeganeh,  S. R. Yost,  A. Zech,  Igor Ying Zhang,  Xing Zhang,  
 Yu Zhang,  D. Zuev,  A. Aspuru-Guzik,  A. T. Bell,  N. A. Besley,  
 K. B. Bravaya,  B. R. Brooks,  D. Casanova,  Jeng-Da Chai,  S. Coriani,  
 C. J. Cramer,  A. E. DePrince, III,  R. A. DiStasio Jr.,  A. Dreuw,  
 B. D. Dunietz,  T. R. Furlani,  W. A. Goddard III,  S. Grimme,  
 S. Hammes-Schiffer,  T. Head-Gordon,  W. J. Hehre,  Chao-Ping Hsu,  
 T.-C. Jagau,  Yousung Jung,  A. Klamt,  Jing Kong,  D. S. Lambrecht,  
 WanZhen Liang,  N. J. Mayhall,  C. W. McCurdy,  J. B. Neaton,  T. Neudecker,  
 C. Ochsenfeld,  J. A. Parkhill,  R. Peverati,  V. A. Rassolov,  Yihan Shao,  
 L. V. Slipchenko,  R. P. Steele,  J. E. Subotnik,  A. J. W. Thom,  
 A. Tkatchenko,  D. G. Truhlar,  T. Van Voorhis,  T. A. Wesolowski,  
 K. B. Whaley,  H. L. Woodcock III,  P. M. Zimmerman,  S. Faraji,  
 P. M. W. Gill,  M. Head-Gordon,  J. M. Herbert,  A. I. Krylov

 Additional authors since Version 5.4.0: 
 Chandrima Chakravarty,  L. Cunha,  R. Kang,  Yongbin Kim,  S. Kotaru,  
 Shaozhi Li,  Xiangyuan Li,  F. Matz,  A. Molle,  V. Parravicini,  
 Haisheng Ren,  Hengyuan Shen,  Yingli Su,  Hung-Yi Tsai,  C. Utku,  
 Fang Wang,  Jeff Yang,  F. Zeller

 Contributors to earlier versions of Q-Chem not listed above: 
 R. D. Adamson,  B. Austin,  R. Baer,  J. Baker,  G. J. O. Beran,  
 K. Brandhorst,  S. T. Brown,  E. F. C. Byrd,  Arup K. Chakraborty,  
 G. K. L. Chan,  Chun-Min Chang,  Yunqing Chen,  C.-L. Cheng,  
 Siu Hung Chien,  D. M. Chipman,  D. L. Crittenden,  H. Dachsel,  
 R. J. Doerksen,  A. D. Dutoi,  R. G. Edgar,  J. Fosso-Tande,  
 L. Fusti-Molnar,  D. Ghosh,  A. Ghysels,  A. Golubeva-Zadorozhnaya,  
 J. Gonthier,  M. S. Gordon,  S. R. Gwaltney,  G. Hawkins,  J. E. Herr,  
 A. Heyden,  S. Hirata,  E. G. Hohenstein,  G. Kedziora,  F. J. Keil,  
 C. Kelley,  Jihan Kim,  R. A. King,  R. Z. Khaliullin,  P. P. Korambath,  
 W. Kurlancheek,  A. Laurent,  A. M. Lee,  M. S. Lee,  S. V. Levchenko,  
 Ching Yeh Lin,  D. Liotard,  E. Livshits,  R. C. Lochan,  I. Lotan,  
 L. A. Martinez-Martinez,  P. E. Maslen,  N. Nair,  D. P. O'Neill,  
 D. Neuhauser,  E. Neuscamman,  C. M. Oana,  R. Olivares-Amaya,  R. Olson,  
 T. M. Perrine,  B. Peters,  P. A. Pieniazek,  A. Prociuk,  Y. M. Rhee,  
 J. Ritchie,  M. A. Rohrdanz,  E. Rosta,  N. J. Russ,  H. F. Schaefer III,  
 M. W. Schmidt,  N. E. Schultz,  S. Sharma,  N. Shenvi,  C. D. Sherrill,  
 A. C. Simmonett,  A. Sodt,  T. Stein,  D. Stuck,  K. S. Thanthiriwatte,  
 V. Vanovschi,  L. Vogt,  Tao Wang,  A. Warshel,  M. A. Watson,  
 C. F. Williams,  Q. Wu,  X. Xu,  Jun Yang,  W. Zhang,  Yan Zhao

   Please cite Q-Chem as follows:
  "Software for the frontiers of quantum chemistry:
   An overview of developments in the Q-Chem 5 package"
   J. Chem. Phys. 155, 084801 (2021)
   https://doi.org/10.1063/5.0055522 (open access)

 Q-Chem 5.4.2 for Intel X86 EM64T Linux

 Parts of Q-Chem use Armadillo 9.900.5 (Nocturnal Misbehaviour).
 http://arma.sourceforge.net/

 Q-Chem begins on Fri Aug 12 12:44:24 2022  

 Host: 
0

     Scratch files written to /home/a/aspuru/seifridm/acdc_laser/descriptor_computation/qchem246251//
 Dec1321 |scratch|qcdevops|jenkins|workspace|build_RNUM 6959   
 Processing $rem in /gpfs/fs1/scinet/niagara/software/commercial/qc54/config/preferences:
 Processing $rem in /home/a/aspuru/seifridm/.qchemrc:

 Checking the input file for inconsistencies... 	...done.

--------------------------------------------------------------
User input:
--------------------------------------------------------------
$molecule
0 1
C           -2.53091978870000       -1.66872928000000       -1.96904296420000
C           -2.71295292570000       -0.86047114970000       -0.93324023620000
C           -1.66344617880000       -0.05765311710000       -0.30154082100000
C           -2.01865487730000        1.19554649740000        0.19278189310000
C           -1.06300316410000        2.04121525250000        0.72445162630000
Cl          -1.53421813810000        3.58629815500000        1.34000502180000
C            0.26708181430000        1.66798674460000        0.76113014060000
C            0.64502817030000        0.41616240690000        0.28443993400000
C            2.05553241070000        0.03730840010000        0.34716183010000
C            2.71703262810000       -0.62100659730000       -0.59047358810000
F            2.28491072810000       -0.99520258570000       -1.78000200300000
F            4.00282971410000       -0.95289210280000       -0.47028325190000
C           -0.32342412620000       -0.47000644350000       -0.21225665720000
O            0.08562497870000       -1.72590312650000       -0.58202776480000
C           -0.39985051590000       -2.79661879660000        0.21526158940000
C            0.21443084450000       -2.79770512120000        1.61119110390000
H           -3.35408196530000       -2.19743299330000       -2.41882793170000
H           -1.55839007460000       -1.82443087740000       -2.40350761040000
H           -3.70954018040000       -0.69717588610000       -0.54115080210000
H           -3.04867181320000        1.51339674030000        0.14130757370000
H            1.01183843430000        2.34071212140000        1.15580757430000
H            2.61482260430000        0.33107861680000        1.22250424880000
H           -0.10914802260000       -3.69642637510000       -0.33136308580000
H           -1.49341301380000       -2.76083304770000        0.28694766070000
H            1.29896533290000       -2.83881068980000        1.54678702050000
H           -0.13937036690000       -3.66304193650000        2.16446332560000
H           -0.06904580170000       -1.89568905660000        2.15046357600000
$end

$rem
BASIS = 6-31G*
GUI = 2
METHOD = B3LYP
PRINT_ORBITALS false
MOLDEN_FORMAT false
$end
--------------------------------------------------------------
 ----------------------------------------------------------------
             Standard Nuclear Orientation (Angstroms)
    I     Atom           X                Y                Z
 ----------------------------------------------------------------
    1      C       0.0184214475    -3.3027467511    -1.3122400257
    2      C      -0.9213037653    -2.7255593844    -0.5753032390
    3      C      -0.9773999189    -1.2972123982    -0.2563934318
    4      C      -2.2350906979    -0.7044814282    -0.1673915184
    5      C      -2.3607229877     0.6556002966     0.0458988356
    6      Cl     -3.9340421253     1.3622308994     0.1623925803
    7      C      -1.2413731702     1.4582174184     0.1582937819
    8      C       0.0259916170     0.8876496827     0.0849444205
    9      C       1.1953025963     1.7542850168     0.2214788054
   10      C       2.3107989559     1.6567419976    -0.4829887824
   11      F       2.5717555705     0.8364324310    -1.4833505591
   12      F       3.3528798580     2.4688365917    -0.3028843249
   13      C       0.1654095351    -0.4989114569    -0.0821287250
   14      O       1.4320449983    -1.0244090582    -0.0535771060
   15      C       1.7303364728    -1.8653778318     1.0516751432
   16      C       1.8161503689    -1.0859604975     2.3597678668
   17      H      -0.0218476604    -4.3520558720    -1.5504812272
   18      H       0.8529431436    -2.7474254643    -1.7046790251
   19      H      -1.7674541054    -3.3041298120    -0.2247729466
   20      H      -3.1179725715    -1.3137628319    -0.2853281074
   21      H      -1.3449735006     2.5220451565     0.3015754887
   22      H       1.1445713671     2.5539826246     0.9448327223
   23      H       2.6986959485    -2.3060965790     0.8046790597
   24      H       0.9865560397    -2.6661247830     1.1405201599
   25      H       2.5564327811    -0.2937272860     2.2797609988
   26      H       2.1021300090    -1.7562466075     3.1653890113
   27      H       0.8524331161    -0.6400005580     2.5988820192
 ----------------------------------------------------------------
 Molecular Point Group                 C1    NOp =  1
 Largest Abelian Subgroup              C1    NOp =  1
 Nuclear Repulsion Energy =        1213.17111635 hartrees
 There are       63 alpha and       63 beta electrons
 Requested basis set is 6-31G(d)
 There are 87 shells and 266 basis functions

 Total QAlloc Memory Limit   8000 MB
 Mega-Array Size       188 MB
 MEM_STATIC part       192 MB
 A cutoff of  1.0D-08 yielded   2523 shell pairs
 There are     24932 function pairs
 Smallest overlap matrix eigenvalue = 3.09E-04

 Scale SEOQF with 1.000000e-01/1.000000e-01/1.000000e-01

 Standard Electronic Orientation quadrupole field applied
 Nucleus-field energy     =     0.0000000383 hartrees
 Guess from superposition of atomic densities
 Warning:  Energy on first SCF cycle will be non-variational
 SAD guess density has 126.000000 electrons

 -----------------------------------------------------------------------
  General SCF calculation program by
  Eric Jon Sundstrom, Paul Horn, Yuezhi Mao, Dmitri Zuev, Alec White,
  David Stuck, Shaama M.S., Shane Yost, Joonho Lee, David Small,
  Daniel Levine, Susi Lehtola, Hugh Burton, Evgeny Epifanovsky,
  Bang C. Huynh
 -----------------------------------------------------------------------
 Exchange:     0.2000 Hartree-Fock + 0.0800 Slater + 0.7200 B88
 Correlation:  0.1900 VWN1RPA + 0.8100 LYP
 Using SG-1 standard quadrature grid
 A restricted SCF calculation will be
 performed using DIIS
 SCF converges when DIIS error is below 1.0e-05
 ---------------------------------------
  Cycle       Energy         DIIS error
 ---------------------------------------
    1   -1202.4187076317      4.79e-02  
    2   -1198.7025919843      5.19e-03  
    3   -1198.5588214562      6.60e-03  
    4   -1198.9212166020      1.29e-03  
    5   -1198.9349986963      4.29e-04  
    6   -1198.9363921962      1.79e-04  
    7   -1198.9366667156      4.65e-05  
    8   -1198.9366838019      1.67e-05  
    9   -1198.9366869107      5.41e-06  Convergence criterion met
 ---------------------------------------
 SCF time:   CPU 73.12s  wall 75.00s 
 SCF   energy in the final basis set =    -1198.9366869107
 Total energy in the final basis set =    -1198.9366869107
 
 --------------------------------------------------------------
 
                    Orbital Energies (a.u.)
 --------------------------------------------------------------
 
 Alpha MOs
 -- Occupied --
******** -24.7362 -24.7321 -19.1683 -10.3565 -10.2518 -10.2494 -10.2378
-10.2138 -10.2093 -10.2031 -10.2023 -10.2015 -10.1986 -10.1854 -10.1785
 -9.4659  -7.2298  -7.2203  -7.2199  -1.2819  -1.2206  -1.0625  -0.9004
 -0.8515  -0.8216  -0.7806  -0.7670  -0.7415  -0.7190  -0.6513  -0.6472
 -0.6212  -0.6036  -0.5717  -0.5575  -0.5390  -0.5158  -0.5152  -0.4911
 -0.4896  -0.4752  -0.4646  -0.4436  -0.4387  -0.4362  -0.4338  -0.4242
 -0.4112  -0.4046  -0.3964  -0.3934  -0.3831  -0.3764  -0.3618  -0.3471
 -0.3323  -0.3144  -0.3062  -0.2829  -0.2680  -0.2323  -0.2248
 -- Virtual --
 -0.0389  -0.0236   0.0290   0.0400   0.0554   0.1012   0.1100   0.1166
  0.1242   0.1420   0.1451   0.1496   0.1606   0.1680   0.1725   0.1759
  0.1795   0.1899   0.2026   0.2050   0.2329   0.2432   0.2794   0.2930
  0.3096   0.3168   0.3448   0.3739   0.3962   0.4023   0.4093   0.4296
  0.4417   0.4465   0.4735   0.4828   0.4878   0.5075   0.5139   0.5189
  0.5313   0.5421   0.5477   0.5614   0.5658   0.5719   0.5792   0.5925
  0.5963   0.6026   0.6168   0.6232   0.6317   0.6403   0.6701   0.6784
  0.6913   0.7153   0.7245   0.7505   0.7729   0.7843   0.7930   0.8073
  0.8220   0.8308   0.8394   0.8428   0.8567   0.8655   0.8719   0.8737
  0.8911   0.8988   0.9026   0.9211   0.9289   0.9349   0.9491   0.9642
  0.9724   0.9849   1.0043   1.0119   1.0203   1.0452   1.0558   1.0974
  1.1050   1.1167   1.1195   1.1363   1.1611   1.1657   1.1964   1.2056
  1.2228   1.2520   1.2628   1.2810   1.2977   1.3400   1.3464   1.3589
  1.3739   1.3777   1.4113   1.4265   1.4443   1.4560   1.4897   1.4951
  1.5082   1.5276   1.5513   1.5550   1.5625   1.5945   1.6425   1.6748
  1.6948   1.7186   1.7424   1.7633   1.7790   1.7933   1.8099   1.8233
  1.8447   1.8574   1.8707   1.8809   1.9088   1.9254   1.9375   1.9432
  1.9724   1.9799   1.9880   1.9977   2.0040   2.0218   2.0402   2.0674
  2.0818   2.0941   2.1282   2.1431   2.1551   2.1687   2.2165   2.2206
  2.2273   2.2512   2.2608   2.2933   2.3019   2.3192   2.3284   2.3752
  2.3840   2.4171   2.4428   2.4679   2.5231   2.5292   2.5515   2.5705
  2.5994   2.6330   2.6534   2.6720   2.6871   2.7136   2.7572   2.7822
  2.8332   2.8670   2.8890   2.9173   2.9506   3.0124   3.0724   3.1303
  3.1819   3.3076   3.4390   4.0657   4.0986   4.1132   4.1257   4.1619
  4.1870   4.2341   4.2498   4.2855   4.3908   4.4458   4.4773   4.5129
  4.7497   4.9044   5.3019
 --------------------------------------------------------------
 
          Ground-State Mulliken Net Atomic Charges

     Atom                 Charge (a.u.)
  ----------------------------------------
      1 C                    -0.325817
      2 C                    -0.152573
      3 C                     0.160962
      4 C                    -0.208292
      5 C                    -0.061358
      6 Cl                   -0.017047
      7 C                    -0.201612
      8 C                     0.145833
      9 C                    -0.323701
     10 C                     0.579984
     11 F                    -0.222848
     12 F                    -0.250897
     13 C                     0.230263
     14 O                    -0.538212
     15 C                    -0.040143
     16 C                    -0.460596
     17 H                     0.144490
     18 H                     0.171485
     19 H                     0.136910
     20 H                     0.150943
     21 H                     0.152683
     22 H                     0.168283
     23 H                     0.149172
     24 H                     0.146657
     25 H                     0.158375
     26 H                     0.148339
     27 H                     0.158716
  ----------------------------------------
  Sum of atomic charges =     0.000000

 -----------------------------------------------------------------
                    Cartesian Multipole Moments
 -----------------------------------------------------------------
    Charge (ESU x 10^10)
                 0.0000
    Dipole Moment (Debye)
         X       0.6217      Y      -1.5424      Z       1.3477
       Tot       2.1405
    Quadrupole Moments (Debye-Ang)
        XX    -103.8015     XY       0.8806     YY     -89.7737
        XZ       2.5964     YZ       0.5477     ZZ     -98.0596
    Octopole Moments (Debye-Ang^2)
       XXX      47.9493    XXY     -16.7682    XYY       9.8201
       YYY      10.2278    XXZ       0.9854    XYZ      -0.7479
       YYZ      -2.3737    XZZ      19.7219    YZZ       6.4067
       ZZZ      -9.7212
    Hexadecapole Moments (Debye-Ang^3)
      XXXX   -2893.3514   XXXY      46.3205   XXYY    -772.5059
      XYYY      42.9323   YYYY   -1717.4424   XXXZ     -19.9309
      XXYZ      -7.7399   XYYZ     -10.7597   YYYZ      17.3949
      XXZZ    -575.8946   XYZZ       7.8806   YYZZ    -387.9859
      XZZZ     -41.4645   YZZZ     -24.3228   ZZZZ    -581.8111
 -----------------------------------------------------------------
 Total job time:  76.42s(wall), 73.73s(cpu) 
 Fri Aug 12 12:45:40 2022

        *************************************************************
        *                                                           *
        *  Thank you very much for using Q-Chem.  Have a nice day.  *
        *                                                           *
        *************************************************************


