32
 energy: -53.299587870975 gnorm: 0.000031264678 xtb: 6.4.1 (23d549d)
C        -3.05475363050000   -3.09566205880000    0.97287991520000
C        -2.74996522360000   -2.50767282870000   -0.40450272680000
N        -1.97859303240000   -1.29778787730000   -0.30640796560000
C        -2.49339552940000   -0.03051230040000   -0.14666951130000
C        -1.43082561880000    0.89479393350000   -0.01777164480000
C        -1.69903830080000    2.24751098080000    0.14252758890000
C        -3.01618968710000    2.65972098580000    0.17486642940000
C        -4.05733416730000    1.74238950330000    0.05109938580000
C        -3.81497255410000    0.39154325920000   -0.10952051100000
C        -0.61159287630000   -1.22263929670000   -0.25339795440000
C        -0.21809345290000    0.12871235060000   -0.08629202660000
C         1.12116079130000    0.47130235370000   -0.01605593490000
C         2.08209624440000   -0.53264430530000   -0.10986369630000
C         3.51017625160000   -0.27421925360000   -0.04629706220000
C         4.13702562760000    0.88376739640000    0.10063317050000
F         3.60731688870000    2.09731762960000    0.22670118690000
F         5.46763526060000    0.99100992230000    0.14429808670000
C         1.67151442130000   -1.86779098470000   -0.27197464470000
C         0.34403219540000   -2.22757756930000   -0.34373868400000
H        -3.63983980040000   -4.00581732880000    0.87191238420000
H        -3.61660119700000   -2.38148732960000    1.57035689990000
H        -2.12990789340000   -3.32879457240000    1.49545900050000
H        -3.68164218750000   -2.28225292930000   -0.93049833180000
H        -2.18874726950000   -3.22901504700000   -1.00469612030000
H        -0.89149582010000    2.95691768630000    0.24024143570000
H        -3.24835525780000    3.70678075540000    0.29945424320000
H        -5.07779152490000    2.09498426910000    0.08349906710000
H        -4.63474410920000   -0.30538472910000   -0.19956495990000
H         1.40115684710000    1.50354231060000    0.11065243760000
H         4.16016640020000   -1.13363543570000   -0.12918120990000
H         2.42697721180000   -2.63691383960000   -0.34005531770000
H         0.06609291390000   -3.26380914850000   -0.46393670900000
