34
 energy: -42.535379934239 gnorm: 0.000022872862 xtb: 6.4.1 (23d549d)
C         2.08257399030000   -3.29919771520000    0.36315276270000
C         2.25249425710000   -2.12363684200000   -0.22699900160000
C         1.32645615520000   -0.99537461570000   -0.13963310500000
C        -0.04327624470000   -1.23629632720000   -0.07496555250000
C        -0.97461744630000   -0.21160617940000   -0.02640714900000
C        -2.47533921740000   -0.45259308110000    0.03854237760000
C        -2.82995430340000   -1.94031188240000    0.10871233910000
C        -3.04021239330000    0.23086000080000    1.29162624420000
C        -3.13335739580000    0.13865949400000   -1.21600577560000
C        -0.49003237120000    1.08991873840000   -0.06270598080000
C         0.86614599250000    1.38221711330000   -0.12646779240000
C         1.30354034940000    2.77592449350000   -0.19889109990000
C         0.71421741470000    3.79219700840000    0.41628041770000
C         1.79974985000000    0.32871517820000   -0.14994760640000
N         3.14837130610000    0.59096204630000   -0.05344681390000
H         2.78777116700000   -4.10332021420000    0.23822072470000
H         1.24194122490000   -3.49825312630000    1.00583553390000
H         3.13451594490000   -1.97568611400000   -0.84216215080000
H        -0.36109167470000   -2.26527128190000   -0.09050673540000
H        -2.38935564780000   -2.40480145760000    0.98784716520000
H        -2.49087366270000   -2.46651654750000   -0.78057835050000
H        -3.91052470560000   -2.05341541610000    0.17368395610000
H        -2.55920438400000   -0.16483422080000    2.18375105350000
H        -4.11100192450000    0.05206230480000    1.36759460750000
H        -2.87649964540000    1.30443229390000    1.26466374910000
H        -2.72623118590000   -0.33009014090000   -2.10961931050000
H        -2.96019857950000    1.20910652290000   -1.28502651780000
H        -4.20776159900000   -0.03302017910000   -1.19439342140000
H        -1.17740400680000    1.92165978970000   -0.06872991970000
H         2.16791210180000    2.97771567830000   -0.82366635940000
H        -0.13023194290000    3.65012730480000    1.06914817330000
H         1.06452052820000    4.80415590400000    0.30334366230000
H         3.45276489650000    1.51691470730000   -0.30244874330000
H         3.77801104490000   -0.15049743540000   -0.31001262900000
