
Running Job 1 of 1 tidas/B043/conf-2/spe_input.inp
qchem tidas/B043/conf-2/spe_input.inp_249526.0 /home/a/aspuru/seifridm/acdc_laser/descriptor_computation/qchem249526/ 0
/gpfs/fs1/scinet/niagara/software/commercial/qc54/exe/qcprog.exe_s tidas/B043/conf-2/spe_input.inp_249526.0 /home/a/aspuru/seifridm/acdc_laser/descriptor_computation/qchem249526/
                  Welcome to Q-Chem
     A Quantum Leap Into The Future Of Chemistry


 Q-Chem 5.4, Q-Chem, Inc., Pleasanton, CA (2021)

 License issued to: SRG Alan Aspuru-Guzik, University of Toronto

 E. Epifanovsky,  A. T. B. Gilbert,  Xintian Feng,  Joonho Lee,  Yuezhi Mao,  
 N. Mardirossian,  P. Pokhilko,  A. White,  M. Wormit,  M. P. Coons,  
 A. L. Dempwolff,  Zhengting Gan,  D. Hait,  P. R. Horn,  L. D. Jacobson,  
 I. Kaliman,  J. Kussmann,  A. W. Lange,  Ka Un Lao,  D. S. Levine,  Jie Liu,  
 S. C. McKenzie,  A. F. Morrison,  K. Nanda,  F. Plasser,  D. R. Rehn,  
 M. L. Vidal,  Zhi-Qiang You,  Ying Zhu,  B. Alam,  B. Albrecht,  
 A. Aldossary,  E. Alguire,  J. H. Andersen,  D. Barton,  K. Begam,  A. Behn,  
 Y. A. Bernard,  E. J. Berquist,  H. Burton,  A. Carreras,  K. Carter-Fenk,  
 Romit Chakraborty,  A. D. Chien,  K. D. Closser,  V. Cofer-Shabica,  
 S. Dasgupta,  Jia Deng,  M. de Wergifosse,  M. Diedenhofen,  Hainam Do,  
 S. Ehlert,  Po-Tung Fang,  S. Fatehi,  Qingguo Feng,  T. Friedhoff,  
 J. Gayvert,  Qinghui Ge,  G. Gidofalvi,  M. Goldey,  J. Gomes,  
 C. Gonzalez-Espinoza,  S. Gulania,  A. Gunina,  M. W. D. Hanson-Heine,  
 P. H. P. Harbach,  A. W. Hauser,  M. F. Herbst,  M. Hernandez Vera,  
 M. Hodecker,  Z. C. Holden,  S. Houck,  Xunkun Huang,  Kerwin Hui,  
 B. C. Huynh,  M. Ivanov,  Hyunjun Ji,  Hanjie Jiang,  B. Kaduk,  S. Kaehler,  
 K. Khistyaev,  Jaehoon Kim,  P. Klunzinger,  Z. Koczor-Benda,  
 Joong Hoon Koh,  D. Kosenkov,  L. Koulias,  T. Kowalczyk,  C. M. Krauter,  
 K. Kue,  A. Kunitsa,  T. Kus,  A. Landau,  K. V. Lawler,  D. Lefrancois,  
 S. Lehtola,  Rain Li,  Yi-Pei Li,  Jiashu Liang,  M. Liebenthal,  
 Hung-Hsuan Lin,  You-Sheng Lin,  Fenglai Liu,  Kuan-Yu Liu,  
 M. Loipersberger,  A. Luenser,  A. Manjanath,  P. Manohar,  E. Mansoor,  
 S. F. Manzer,  Shan-Ping Mao,  A. V. Marenich,  T. Markovich,  S. Mason,  
 S. A. Maurer,  P. F. McLaughlin,  M. F. S. J. Menger,  J.-M. Mewes,  
 S. A. Mewes,  P. Morgante,  J. W. Mullinax,  K. J. Oosterbaan,  G. Paran,  
 Alexander C. Paul,  Suranjan K. Paul,  F. Pavosevic,  Zheng Pei,  S. Prager,  
 E. I. Proynov,  E. Ramos,  B. Rana,  A. E. Rask,  A. Rettig,  R. M. Richard,  
 F. Rob,  E. Rossomme,  T. Scheele,  M. Scheurer,  M. Schneider,  
 N. Sergueev,  S. M. Sharada,  W. Skomorowski,  D. W. Small,  C. J. Stein,  
 Yu-Chuan Su,  E. J. Sundstrom,  Zhen Tao,  J. Thirman,  T. Tsuchimochi,  
 N. M. Tubman,  S. P. Veccham,  O. Vydrov,  J. Wenzel,  J. Witte,  A. Yamada,  
 Kun Yao,  S. Yeganeh,  S. R. Yost,  A. Zech,  Igor Ying Zhang,  Xing Zhang,  
 Yu Zhang,  D. Zuev,  A. Aspuru-Guzik,  A. T. Bell,  N. A. Besley,  
 K. B. Bravaya,  B. R. Brooks,  D. Casanova,  Jeng-Da Chai,  S. Coriani,  
 C. J. Cramer,  A. E. DePrince, III,  R. A. DiStasio Jr.,  A. Dreuw,  
 B. D. Dunietz,  T. R. Furlani,  W. A. Goddard III,  S. Grimme,  
 S. Hammes-Schiffer,  T. Head-Gordon,  W. J. Hehre,  Chao-Ping Hsu,  
 T.-C. Jagau,  Yousung Jung,  A. Klamt,  Jing Kong,  D. S. Lambrecht,  
 WanZhen Liang,  N. J. Mayhall,  C. W. McCurdy,  J. B. Neaton,  T. Neudecker,  
 C. Ochsenfeld,  J. A. Parkhill,  R. Peverati,  V. A. Rassolov,  Yihan Shao,  
 L. V. Slipchenko,  R. P. Steele,  J. E. Subotnik,  A. J. W. Thom,  
 A. Tkatchenko,  D. G. Truhlar,  T. Van Voorhis,  T. A. Wesolowski,  
 K. B. Whaley,  H. L. Woodcock III,  P. M. Zimmerman,  S. Faraji,  
 P. M. W. Gill,  M. Head-Gordon,  J. M. Herbert,  A. I. Krylov

 Additional authors since Version 5.4.0: 
 Chandrima Chakravarty,  L. Cunha,  R. Kang,  Yongbin Kim,  S. Kotaru,  
 Shaozhi Li,  Xiangyuan Li,  F. Matz,  A. Molle,  V. Parravicini,  
 Haisheng Ren,  Hengyuan Shen,  Yingli Su,  Hung-Yi Tsai,  C. Utku,  
 Fang Wang,  Jeff Yang,  F. Zeller

 Contributors to earlier versions of Q-Chem not listed above: 
 R. D. Adamson,  B. Austin,  R. Baer,  J. Baker,  G. J. O. Beran,  
 K. Brandhorst,  S. T. Brown,  E. F. C. Byrd,  Arup K. Chakraborty,  
 G. K. L. Chan,  Chun-Min Chang,  Yunqing Chen,  C.-L. Cheng,  
 Siu Hung Chien,  D. M. Chipman,  D. L. Crittenden,  H. Dachsel,  
 R. J. Doerksen,  A. D. Dutoi,  R. G. Edgar,  J. Fosso-Tande,  
 L. Fusti-Molnar,  D. Ghosh,  A. Ghysels,  A. Golubeva-Zadorozhnaya,  
 J. Gonthier,  M. S. Gordon,  S. R. Gwaltney,  G. Hawkins,  J. E. Herr,  
 A. Heyden,  S. Hirata,  E. G. Hohenstein,  G. Kedziora,  F. J. Keil,  
 C. Kelley,  Jihan Kim,  R. A. King,  R. Z. Khaliullin,  P. P. Korambath,  
 W. Kurlancheek,  A. Laurent,  A. M. Lee,  M. S. Lee,  S. V. Levchenko,  
 Ching Yeh Lin,  D. Liotard,  E. Livshits,  R. C. Lochan,  I. Lotan,  
 L. A. Martinez-Martinez,  P. E. Maslen,  N. Nair,  D. P. O'Neill,  
 D. Neuhauser,  E. Neuscamman,  C. M. Oana,  R. Olivares-Amaya,  R. Olson,  
 T. M. Perrine,  B. Peters,  P. A. Pieniazek,  A. Prociuk,  Y. M. Rhee,  
 J. Ritchie,  M. A. Rohrdanz,  E. Rosta,  N. J. Russ,  H. F. Schaefer III,  
 M. W. Schmidt,  N. E. Schultz,  S. Sharma,  N. Shenvi,  C. D. Sherrill,  
 A. C. Simmonett,  A. Sodt,  T. Stein,  D. Stuck,  K. S. Thanthiriwatte,  
 V. Vanovschi,  L. Vogt,  Tao Wang,  A. Warshel,  M. A. Watson,  
 C. F. Williams,  Q. Wu,  X. Xu,  Jun Yang,  W. Zhang,  Yan Zhao

   Please cite Q-Chem as follows:
  "Software for the frontiers of quantum chemistry:
   An overview of developments in the Q-Chem 5 package"
   J. Chem. Phys. 155, 084801 (2021)
   https://doi.org/10.1063/5.0055522 (open access)

 Q-Chem 5.4.2 for Intel X86 EM64T Linux

 Parts of Q-Chem use Armadillo 9.900.5 (Nocturnal Misbehaviour).
 http://arma.sourceforge.net/

 Q-Chem begins on Fri Aug 12 12:44:47 2022  

 Host: 
0

     Scratch files written to /home/a/aspuru/seifridm/acdc_laser/descriptor_computation/qchem249526//
 Dec1321 |scratch|qcdevops|jenkins|workspace|build_RNUM 6959   
 Processing $rem in /gpfs/fs1/scinet/niagara/software/commercial/qc54/config/preferences:
 Processing $rem in /home/a/aspuru/seifridm/.qchemrc:

 Checking the input file for inconsistencies... 	...done.

--------------------------------------------------------------
User input:
--------------------------------------------------------------
$molecule
0 1
C           -2.28493602240000        3.66307647850000        0.04693839170000
C           -2.67667298570000        2.39955578430000       -0.06066099490000
C           -1.82464222850000        1.21528616620000       -0.03662546360000
C           -2.42588251320000       -0.04445595980000       -0.01510495020000
C           -1.67124414820000       -1.20643233640000        0.01253450220000
C           -2.32777564980000       -2.55286910910000        0.05397048940000
C           -0.28623116260000       -1.11342757410000        0.01442694370000
C            0.34503224430000        0.12963306990000       -0.01265116710000
C            1.79192516130000        0.28931167580000       -0.01768042040000
C            2.72810264500000       -0.64701172050000        0.00160617600000
F            2.57244636270000       -1.96587935390000        0.02938208640000
F            4.03260007870000       -0.37058003090000       -0.00477026010000
C           -0.43543598950000        1.28398694320000       -0.03809312050000
H           -2.99462468650000        4.47209118590000        0.02166504020000
H           -1.25402740650000        3.94770418990000        0.16914841920000
H           -3.73360377960000        2.18760920140000       -0.16808238520000
H           -3.50495785190000       -0.11258074510000       -0.01709104950000
H           -3.38740246240000       -2.47870956970000       -0.17662460250000
H           -2.22211164450000       -2.98829812640000        1.04755265050000
H           -1.85830245590000       -3.22994282190000       -0.65680100350000
H            0.29452123000000       -2.02118209540000        0.03432960480000
H            2.16359370730000        1.30387357230000       -0.03928402050000
H            0.05437030050000        2.24473114570000       -0.06692617650000
$end

$rem
BASIS = 6-31G*
GUI = 2
METHOD = B3LYP
PRINT_ORBITALS false
MOLDEN_FORMAT false
$end
--------------------------------------------------------------
 ----------------------------------------------------------------
             Standard Nuclear Orientation (Angstroms)
    I     Atom           X                Y                Z
 ----------------------------------------------------------------
    1      C       3.5001043595    -2.3723800481     0.0741164924
    2      C       3.3192973269    -1.0629257876    -0.0448724897
    3      C       2.0454092440    -0.3515838975    -0.0296898012
    4      C       2.0556434428     1.0443751224    -0.0198453934
    5      C       0.8794022535     1.7768600381    -0.0010142022
    6      C       0.9029000411     3.2749432028     0.0279205906
    7      C      -0.3354673771     1.1053069664     0.0037491840
    8      C      -0.3799528095    -0.2883240071    -0.0117502920
    9      C      -1.6225726303    -1.0465557721    -0.0132453611
   10      C      -2.8675093968    -0.5954755081    -0.0005647007
   11      F      -3.2858957256     0.6651198485     0.0156969297
   12      F      -3.9316576346    -1.3990630820    -0.0026217324
   13      C       0.8164431670    -1.0029339282    -0.0284879691
   14      H       4.4859526643    -2.8042685221     0.0546998750
   15      H       2.6869094467    -3.0662908913     0.2003011776
   16      H       4.1868468267    -0.4236750230    -0.1556864671
   17      H       3.0039985802     1.5636568670    -0.0240311659
   18      H       1.8944992378     3.6552101375    -0.2036194862
   19      H       0.6203008973     3.6327815276     1.0178995192
   20      H       0.1922201634     3.6830469418    -0.6879114129
   21      H      -1.2464076905     1.6812464208     0.0167575921
   22      H      -1.5288733331    -2.1231278912    -0.0256138560
   23      H       0.7803477223    -2.0809287506    -0.0483688973
 ----------------------------------------------------------------
 Molecular Point Group                 C1    NOp =  1
 Largest Abelian Subgroup              C1    NOp =  1
 Nuclear Repulsion Energy =         728.56711294 hartrees
 There are       47 alpha and       47 beta electrons
 Requested basis set is 6-31G(d)
 There are 72 shells and 215 basis functions

 Total QAlloc Memory Limit   8000 MB
 Mega-Array Size       188 MB
 MEM_STATIC part       192 MB
 A cutoff of  1.0D-08 yielded   1744 shell pairs
 There are     16486 function pairs
 Smallest overlap matrix eigenvalue = 3.51E-04

 Scale SEOQF with 1.000000e-01/1.000000e-01/1.000000e+00

 Standard Electronic Orientation quadrupole field applied
 Nucleus-field energy     =     0.0000000361 hartrees
 Guess from superposition of atomic densities
 Warning:  Energy on first SCF cycle will be non-variational
 SAD guess density has 94.000000 electrons

 -----------------------------------------------------------------------
  General SCF calculation program by
  Eric Jon Sundstrom, Paul Horn, Yuezhi Mao, Dmitri Zuev, Alec White,
  David Stuck, Shaama M.S., Shane Yost, Joonho Lee, David Small,
  Daniel Levine, Susi Lehtola, Hugh Burton, Evgeny Epifanovsky,
  Bang C. Huynh
 -----------------------------------------------------------------------
 Exchange:     0.2000 Hartree-Fock + 0.0800 Slater + 0.7200 B88
 Correlation:  0.1900 VWN1RPA + 0.8100 LYP
 Using SG-1 standard quadrature grid
 A restricted SCF calculation will be
 performed using DIIS
 SCF converges when DIIS error is below 1.0e-05
 ---------------------------------------
  Cycle       Energy         DIIS error
 ---------------------------------------
    1    -627.7064642835      5.42e-02  
    2    -624.5961466876      6.23e-03  
    3    -624.4196017353      8.26e-03  
    4    -624.8168082415      1.63e-03  
    5    -624.8321328926      4.56e-04  
    6    -624.8329913556      2.48e-04  
    7    -624.8333590980      5.42e-05  
    8    -624.8333750818      1.85e-05  
    9    -624.8333775536      5.71e-06  Convergence criterion met
 ---------------------------------------
 SCF time:   CPU 41.27s  wall 42.00s 
 SCF   energy in the final basis set =     -624.8333775536
 Total energy in the final basis set =     -624.8333775536
 
 --------------------------------------------------------------
 
                    Orbital Energies (a.u.)
 --------------------------------------------------------------
 
 Alpha MOs
 -- Occupied --
-24.7436 -24.7328 -10.3556 -10.2046 -10.2017 -10.1946 -10.1942 -10.1904
-10.1857 -10.1831 -10.1822 -10.1812 -10.1803  -1.2841  -1.2230  -0.8713
 -0.8139  -0.7967  -0.7545  -0.7274  -0.6895  -0.6448  -0.6243  -0.5991
 -0.5708  -0.5526  -0.5178  -0.5158  -0.5021  -0.4845  -0.4476  -0.4405
 -0.4398  -0.4328  -0.4247  -0.4204  -0.4129  -0.4059  -0.3827  -0.3741
 -0.3670  -0.3427  -0.3394  -0.3167  -0.2762  -0.2271  -0.2176
 -- Virtual --
 -0.0344  -0.0185   0.0437   0.0877   0.0884   0.1068   0.1202   0.1245
  0.1478   0.1515   0.1585   0.1662   0.1812   0.2019   0.2063   0.2118
  0.2266   0.2486   0.2924   0.3186   0.3277   0.3441   0.3567   0.3916
  0.4303   0.4325   0.4633   0.4961   0.5188   0.5231   0.5355   0.5400
  0.5449   0.5540   0.5593   0.5748   0.5772   0.5881   0.5935   0.6074
  0.6082   0.6158   0.6275   0.6412   0.6667   0.6855   0.7008   0.7174
  0.7425   0.7604   0.7777   0.7827   0.7981   0.8234   0.8348   0.8389
  0.8584   0.8806   0.8894   0.8975   0.9188   0.9410   0.9561   0.9610
  0.9800   1.0025   1.0154   1.0265   1.0861   1.1000   1.1143   1.1426
  1.1545   1.1610   1.1816   1.2115   1.2179   1.2345   1.2569   1.2704
  1.3043   1.3356   1.3416   1.3529   1.3882   1.4062   1.4114   1.4508
  1.4646   1.4667   1.4895   1.4987   1.5137   1.5250   1.5446   1.5968
  1.6572   1.6775   1.7332   1.7730   1.7828   1.7982   1.8220   1.8318
  1.8376   1.8669   1.8723   1.8978   1.8992   1.9190   1.9314   1.9528
  1.9667   1.9847   1.9998   2.0224   2.0320   2.0341   2.0637   2.1108
  2.1403   2.1520   2.1737   2.2002   2.2292   2.2373   2.2410   2.2727
  2.3180   2.3215   2.3443   2.3651   2.3859   2.4085   2.4235   2.5144
  2.5315   2.5358   2.6178   2.6352   2.6372   2.6736   2.7060   2.7296
  2.7977   2.8255   2.8780   2.9220   2.9400   2.9898   3.0520   3.1448
  3.1816   3.3253   3.4818   4.0807   4.0947   4.1206   4.1320   4.1550
  4.2330   4.2531   4.2737   4.4542   4.4974   4.7300   4.8284   5.2975
 --------------------------------------------------------------
 
          Ground-State Mulliken Net Atomic Charges

     Atom                 Charge (a.u.)
  ----------------------------------------
      1 C                    -0.352324
      2 C                    -0.113280
      3 C                     0.185745
      4 C                    -0.256969
      5 C                     0.183716
      6 C                    -0.529475
      7 C                    -0.249904
      8 C                     0.203250
      9 C                    -0.295492
     10 C                     0.541707
     11 F                    -0.234725
     12 F                    -0.250023
     13 C                    -0.264079
     14 H                     0.144360
     15 H                     0.142416
     16 H                     0.126931
     17 H                     0.119434
     18 H                     0.155711
     19 H                     0.167807
     20 H                     0.162670
     21 H                     0.130429
     22 H                     0.158700
     23 H                     0.123397
  ----------------------------------------
  Sum of atomic charges =     0.000000

 -----------------------------------------------------------------
                    Cartesian Multipole Moments
 -----------------------------------------------------------------
    Charge (ESU x 10^10)
                 0.0000
    Dipole Moment (Debye)
         X       1.0056      Y       0.2439      Z       0.0268
       Tot       1.0351
    Quadrupole Moments (Debye-Ang)
        XX     -74.0454     XY       0.2694     YY     -67.0866
        XZ      -0.1484     YZ      -0.0795     ZZ     -77.0128
    Octopole Moments (Debye-Ang^2)
       XXX     -16.2681    XXY       3.4649    XYY     -11.0837
       YYY      -6.5469    XXZ      -1.4674    XYZ      -0.4494
       YYZ       1.1342    XZZ     -27.1920    YZZ       1.7991
       ZZZ       0.6270
    Hexadecapole Moments (Debye-Ang^3)
      XXXX   -2452.6209   XXXY      -4.9022   XXYY    -600.8299
      XYYY      13.9223   YYYY   -1188.9991   XXXZ      -7.0318
      XXYZ      -2.3207   XYYZ       2.6113   YYYZ      -2.1504
      XXZZ    -444.7309   XYZZ      15.9782   YYZZ    -226.4854
      XZZZ      -0.3828   YZZZ       1.8895   ZZZZ     -81.7327
 -----------------------------------------------------------------
 Total job time:  43.16s(wall), 41.69s(cpu) 
 Fri Aug 12 12:45:30 2022

        *************************************************************
        *                                                           *
        *  Thank you very much for using Q-Chem.  Have a nice day.  *
        *                                                           *
        *************************************************************


