21
 energy: -30.957846524963 gnorm: 0.000092999338 xtb: 6.4.1 (23d549d)
C         3.01688502680000   -2.42311453790000    0.13039344780000
C         2.70277361880000   -1.14485263240000   -0.03776286360000
C         1.36032203150000   -0.57188983080000   -0.03465567780000
C         1.22468831500000    0.81467437450000   -0.03204853580000
C        -0.04191587080000    1.39345429050000   -0.02660539920000
C        -0.16702346290000    2.80298315510000   -0.02735912320000
N        -0.26836103570000    3.94483737350000   -0.02833533760000
C        -1.18667693590000    0.60207498140000   -0.02475888590000
C        -1.07074427540000   -0.78632057860000   -0.03036145000000
C        -2.23146380210000   -1.67163040330000   -0.03195390600000
C        -3.49570540770000   -1.31493910860000    0.15599309500000
C         0.20417588500000   -1.35057693330000   -0.04114759110000
H         4.04162301110000   -2.75198735470000    0.11716817660000
H         2.27999884570000   -3.19072684000000    0.29408996420000
H         3.49736685140000   -0.42258593380000   -0.17940398570000
H         2.09982495800000    1.44864180140000   -0.03299199510000
H        -2.15495228800000    1.07749561650000   -0.03155896900000
H        -1.99800223320000   -2.71737024360000   -0.19073159760000
H        -3.79618289640000   -0.29705658610000    0.33641847010000
H        -4.28856198100000   -2.04277483660000    0.14285676630000
H         0.29071089610000   -2.42654012610000   -0.05889258030000
