
Running Job 1 of 1 fragments/C157/conf-2/spe_input.inp
qchem fragments/C157/conf-2/spe_input.inp_253120.0 /gpfs/fs0/scratch/a/aspuru/rhickman/descriptor_computation/qchem253120/ 0
/scinet/niagara/software/commercial/qc52/exe/qcprog.exe_s fragments/C157/conf-2/spe_input.inp_253120.0 /gpfs/fs0/scratch/a/aspuru/rhickman/descriptor_computation/qchem253120/
                  Welcome to Q-Chem
     A Quantum Leap Into The Future Of Chemistry


 Q-Chem 5.2, Q-Chem, Inc., Pleasanton, CA (2019)

 License issued to: SRG Alan Aspuru-Guzik, University of Toronto

 Yihan Shao,  Zhengting Gan,  E. Epifanovsky,  A. T. B. Gilbert,  M. Wormit,  
 J. Kussmann,  A. W. Lange,  A. Behn,  Jia Deng,  Xintian Feng,  D. Ghosh,  
 M. Goldey,  P. R. Horn,  L. D. Jacobson,  I. Kaliman,  T. Kus,  A. Landau,  
 Jie Liu,  E. I. Proynov,  R. M. Richard,  R. P. Steele,  E. J. Sundstrom,  
 H. L. Woodcock III,  P. M. Zimmerman,  D. Zuev,  B. Albrecht,  E. Alguire,  
 S. A. Baeppler,  D. Barton,  Z. Benda,  Y. A. Bernard,  E. J. Berquist,  
 K. B. Bravaya,  H. Burton,  D. Casanova,  Chun-Min Chang,  Yunqing Chen,  
 A. Chien,  K. D. Closser,  M. P. Coons,  S. Coriani,  S. Dasgupta,  
 A. L. Dempwolff,  M. Diedenhofen,  Hainam Do,  R. G. Edgar,  Po-Tung Fang,  
 S. Faraji,  S. Fatehi,  Qingguo Feng,  K. D. Fenk,  J. Fosso-Tande,  
 J. Gayvert,  Qinghui Ge,  A. Ghysels,  G. Gidofalvi,  J. Gomes,  
 J. Gonthier,  A. Gunina,  D. Hait,  M. W. D. Hanson-Heine,  
 P. H. P. Harbach,  A. W. Hauser,  M. F. Herbst,  J. E. Herr,  
 E. G. Hohenstein,  Z. C. Holden,  Kerwin Hui,  B. C. Huynh,  T.-C. Jagau,  
 Hyunjun Ji,  B. Kaduk,  K. Khistyaev,  Jaehoon Kim,  P. Klunzinger,  K. Koh,  
 D. Kosenkov,  L. Koulias,  T. Kowalczyk,  C. M. Krauter,  A. Kunitsa,  
 Ka Un Lao,  A. Laurent,  K. V. Lawler,  Joonho Lee,  D. Lefrancois,  
 S. Lehtola,  D. S. Levine,  Yi-Pei Li,  You-Sheng Lin,  Fenglai Liu,  
 E. Livshits,  A. Luenser,  P. Manohar,  E. Mansoor,  S. F. Manzer,  
 Shan-Ping Mao,  Yuezhi Mao,  N. Mardirossian,  A. V. Marenich,  
 T. Markovich,  L. A. Martinez-Martinez,  S. A. Maurer,  N. J. Mayhall,  
 S. C. McKenzie,  J.-M. Mewes,  P. Morgante,  A. F. Morrison,  
 J. W. Mullinax,  K. Nanda,  T. S. Nguyen-Beck,  R. Olivares-Amaya,  
 J. A. Parkhill,  Zheng Pei,  T. M. Perrine,  F. Plasser,  P. Pokhilko,  
 S. Prager,  A. Prociuk,  E. Ramos,  D. R. Rehn,  F. Rob,  M. Scheurer,  
 M. Schneider,  N. Sergueev,  S. M. Sharada,  S. Sharma,  D. W. Small,  
 T. Stauch,  T. Stein,  Yu-Chuan Su,  A. J. W. Thom,  A. Tkatchenko,  
 T. Tsuchimochi,  N. M. Tubman,  L. Vogt,  M. L. Vidal,  O. Vydrov,  
 M. A. Watson,  J. Wenzel,  M. de Wergifosse,  T. A. Wesolowski,  A. White,  
 J. Witte,  A. Yamada,  Jun Yang,  K. Yao,  S. Yeganeh,  S. R. Yost,  
 Zhi-Qiang You,  A. Zech,  Igor Ying Zhang,  Xing Zhang,  Yan Zhao,  
 Ying Zhu,  B. R. Brooks,  G. K. L. Chan,  C. J. Cramer,  M. S. Gordon,  
 W. J. Hehre,  A. Klamt,  M. W. Schmidt,  C. D. Sherrill,  D. G. Truhlar,  
 A. Aspuru-Guzik,  R. Baer,  A. T. Bell,  N. A. Besley,  Jeng-Da Chai,  
 A. E. DePrince, III,  R. A. DiStasio Jr.,  A. Dreuw,  B. D. Dunietz,  
 T. R. Furlani,  Chao-Ping Hsu,  Yousung Jung,  Jing Kong,  D. S. Lambrecht,  
 WanZhen Liang,  C. Ochsenfeld,  V. A. Rassolov,  L. V. Slipchenko,  
 J. E. Subotnik,  T. Van Voorhis,  J. M. Herbert,  A. I. Krylov,  
 P. M. W. Gill,  M. Head-Gordon

 Contributors to earlier versions of Q-Chem not listed above: 
 R. D. Adamson,  B. Austin,  J. Baker,  G. J. O. Beran,  K. Brandhorst,  
 S. T. Brown,  E. F. C. Byrd,  A. K. Chakraborty,  C.-L. Cheng,  
 Siu Hung Chien,  D. M. Chipman,  D. L. Crittenden,  H. Dachsel,  
 R. J. Doerksen,  A. D. Dutoi,  L. Fusti-Molnar,  W. A. Goddard III,  
 A. Golubeva-Zadorozhnaya,  S. R. Gwaltney,  G. Hawkins,  A. Heyden,  
 S. Hirata,  G. Kedziora,  F. J. Keil,  C. Kelley,  Jihan Kim,  R. A. King,  
 R. Z. Khaliullin,  P. P. Korambath,  W. Kurlancheek,  A. M. Lee,  M. S. Lee,  
 S. V. Levchenko,  Ching Yeh Lin,  D. Liotard,  R. C. Lochan,  I. Lotan,  
 P. E. Maslen,  N. Nair,  D. P. O'Neill,  D. Neuhauser,  E. Neuscamman,  
 C. M. Oana,  R. Olson,  B. Peters,  R. Peverati,  P. A. Pieniazek,  
 Y. M. Rhee,  J. Ritchie,  M. A. Rohrdanz,  E. Rosta,  N. J. Russ,  
 H. F. Schaefer III,  N. E. Schultz,  N. Shenvi,  A. C. Simmonett,  A. Sodt,  
 D. Stuck,  K. S. Thanthiriwatte,  V. Vanovschi,  Tao Wang,  A. Warshel,  
 C. F. Williams,  Q. Wu,  X. Xu,  W. Zhang

 Please cite Q-Chem as follows:
 Y. Shao et al., Mol. Phys. 113, 184-215 (2015)
 DOI: 10.1080/00268976.2014.952696

 Q-Chem 5.2.1 for Intel X86 EM64T Linux

 Parts of Q-Chem use Armadillo 8.300.2 (Tropical Shenanigans).
 http://arma.sourceforge.net/

 Q-Chem begins on Mon Feb  7 08:34:38 2022  

Host: 
0

     Scratch files written to /gpfs/fs0/scratch/a/aspuru/rhickman/descriptor_computation/qchem253120//
 Jul1719 |scratch|qcdevops|jenkins|workspace|build_RNUM -1
Processing $rem in /scinet/niagara/software/commercial/qc52/config/preferences:
	 MEM_TOTAL  4000 
NAlpha2: 102
NElect   102
Mult     1

Checking the input file for inconsistencies... 	...done.

--------------------------------------------------------------
User input:
--------------------------------------------------------------
$molecule
0 1
C         3.85230400910000    2.51297126290000   -0.01811473370000
C         3.52795478160000    1.22620738450000    0.06503218530000
C         2.18388093790000    0.71315300610000    0.00369786280000
C         0.96276827820000    1.32108851420000   -0.14310862790000
C        -0.00701148630000    0.28877993950000   -0.13232895380000
C        -1.44437275140000    0.54160051790000   -0.26461904680000
O        -1.91942026790000    1.64657273320000   -0.37234948860000
O        -2.17895215370000   -0.58396550170000   -0.26593008230000
C        -3.59316504200000   -0.42397746870000   -0.37468898810000
C        -4.22606244670000   -0.12018255640000    0.97585866240000
C         0.69780241590000   -0.90024421450000    0.02395150710000
C         0.24807083270000   -2.26392111710000    0.10727227960000
C         1.06905802720000   -3.30228810120000    0.25380179560000
O         2.01195093370000   -0.62852641340000    0.10421283350000
H         4.87648818660000    2.83649870900000    0.03418219600000
H         3.10709818720000    3.27913787530000   -0.14049966620000
H         4.29029847690000    0.46876471110000    0.18804748680000
H         0.75501600440000    2.36505742760000   -0.24792235120000
H        -3.95511695440000   -1.37315730820000   -0.77599405730000
H        -3.80499014770000    0.38542368440000   -1.08113300860000
H        -3.97565106060000   -0.89818006300000    1.69336229360000
H        -5.30574426890000   -0.06811252070000    0.86871304660000
H        -3.86226981400000    0.83443399710000    1.34775393330000
H        -0.82067551220000   -2.39275479630000    0.04073652870000
H         2.13583583360000   -3.17019567000000    0.31819495430000
H         0.69680579820000   -4.30958268730000    0.31258598340000
$end

$rem
BASIS = 6-31G*
GUI = 2
METHOD = B3LYP
PRINT_ORBITALS false
MOLDEN_FORMAT false
--------------------------------------------------------------
 ----------------------------------------------------------------
             Standard Nuclear Orientation (Angstroms)
    I     Atom           X                Y                Z
 ----------------------------------------------------------------
    1      C       4.2896438320    -1.7333187541    -0.1502744795
    2      C       3.7252978343    -0.5294124816    -0.1496482867
    3      C       2.3094789115    -0.2869064715    -0.0488077956
    4      C       1.2288559907    -1.1244514901     0.0653250230
    5      C       0.0805383598    -0.2973979256     0.1253167430
    6      C      -1.2800926369    -0.8273866917     0.2486922628
    7      O      -1.5345787303    -2.0071774663     0.2883173062
    8      O      -2.2150447016     0.1351503797     0.3254679393
    9      C      -3.5709988709    -0.2980265462     0.4311505092
   10      C      -4.1577974818    -0.6333035382    -0.9326992475
   11      C       0.5437608321     1.0115511661     0.0414008657
   12      C      -0.1582826852     2.2669054787     0.0474002234
   13      C       0.4477759943     3.4498129052    -0.0369784675
   14      O       1.8840170366     1.0009417469    -0.0628081421
   15      H       5.3555901681    -1.8517141811    -0.2283714590
   16      H       3.7058320905    -2.6336086839    -0.0730542787
   17      H       4.3275795336     0.3656381299    -0.2281418234
   18      H       1.2251114694    -2.1933136814     0.1045373985
   19      H      -4.0997621487     0.5381736310     0.8939420096
   20      H      -3.6129549006    -1.1748631648     1.0857194452
   21      H      -4.0721869411     0.2208067277    -1.6005045577
   22      H      -5.2059023284    -0.8968447062    -0.8234903100
   23      H      -3.6256876588    -1.4762880342    -1.3664966796
   24      H      -1.2307295347     2.1851815598     0.1275427766
   25      H       1.5189466346     3.5278369187    -0.1151800674
   26      H      -0.1100657032     4.3692842964    -0.0295833825
 ----------------------------------------------------------------
 Molecular Point Group                 C1    NOp =  1
 Largest Abelian Subgroup              C1    NOp =  1
 Nuclear Repulsion Energy =         855.26494433 hartrees
 There are       51 alpha and       51 beta electrons
 Requested basis set is 6-31G(d)
 There are 80 shells and 234 basis functions

 Total QAlloc Memory Limit   4000 MB
 Mega-Array Size       188 MB
 MEM_STATIC part       192 MB
 A cutoff of  1.0D-08 yielded   1939 shell pairs
 There are     18666 function pairs
 Smallest overlap matrix eigenvalue = 5.07E-04

 Scale SEOQF with 1.000000e-02/1.000000e-01/1.000000e-01

 Standard Electronic Orientation quadrupole field applied
 Nucleus-field energy     =     0.0000000179 hartrees
 Guess from superposition of atomic densities
 Warning:  Energy on first SCF cycle will be non-variational
 SAD guess density has 102.000000 electrons

 -----------------------------------------------------------------------
  General SCF calculation program by
  Eric Jon Sundstrom, Paul Horn, Yuezhi Mao, Dmitri Zuev, Alec White,
  David Stuck, Shaama M.S., Shane Yost, Joonho Lee, David Small,
  Daniel Levine, Susi Lehtola, Hugh Burton, Evgeny Epifanovsky,
  Bang C. Huynh
 -----------------------------------------------------------------------
 Exchange:     0.2000 Hartree-Fock + 0.0800 Slater + 0.7200 B88
 Correlation:  0.1900 VWN1RPA + 0.8100 LYP
 Using SG-1 standard quadrature grid
 A restricted SCF calculation will be
 performed using DIIS
 SCF converges when DIIS error is below 1.0e-05
 ---------------------------------------
  Cycle       Energy         DIIS error
 ---------------------------------------
    1    -655.1613473235      5.37e-02  
    2    -651.7786417426      6.29e-03  
    3    -651.5046886870      9.58e-03  
    4    -651.9858949998      2.71e-03  
    5    -652.0278590685      5.45e-04  
    6    -652.0290444736      2.64e-04  
    7    -652.0294217746      5.96e-05  
    8    -652.0294410937      2.05e-05  
    9    -652.0294436235      6.60e-06  Convergence criterion met
 ---------------------------------------
 SCF time:   CPU 38.93s  wall 39.00s 
 SCF   energy in the final basis set =     -652.0294436235
 Total energy in the final basis set =     -652.0294436235
 
 --------------------------------------------------------------
 
                    Orbital Energies (a.u.)
 --------------------------------------------------------------
 
 Alpha MOs
 -- Occupied --
-19.2268 -19.1909 -19.1310 -10.3159 -10.2579 -10.2488 -10.2425 -10.2023
-10.2011 -10.1975 -10.1903 -10.1884 -10.1880 -10.1796  -1.1326  -1.1069
 -1.0158  -0.8258  -0.8227  -0.7843  -0.7711  -0.7213  -0.6794  -0.6364
 -0.6210  -0.5825  -0.5753  -0.5523  -0.5140  -0.4907  -0.4818  -0.4747
 -0.4695  -0.4593  -0.4463  -0.4332  -0.4301  -0.4095  -0.4047  -0.3905
 -0.3851  -0.3774  -0.3665  -0.3622  -0.3391  -0.3264  -0.2993  -0.2960
 -0.2748  -0.2741  -0.2028
 -- Virtual --
 -0.0546  -0.0250   0.0457   0.0999   0.1017   0.1093   0.1156   0.1277
  0.1329   0.1431   0.1486   0.1558   0.1602   0.1716   0.1799   0.1890
  0.1931   0.2009   0.2147   0.2284   0.2440   0.2717   0.2833   0.3201
  0.3223   0.3502   0.3592   0.3804   0.4138   0.4263   0.4592   0.4885
  0.5044   0.5069   0.5239   0.5322   0.5329   0.5490   0.5541   0.5593
  0.5675   0.5870   0.5925   0.6040   0.6171   0.6183   0.6307   0.6434
  0.6531   0.6548   0.6739   0.6805   0.6840   0.6977   0.7508   0.7645
  0.7672   0.7958   0.8095   0.8308   0.8464   0.8533   0.8617   0.8769
  0.8893   0.8941   0.9017   0.9072   0.9123   0.9279   0.9286   0.9538
  0.9669   0.9769   0.9829   0.9964   1.0229   1.0234   1.0495   1.0762
  1.0951   1.1059   1.1455   1.1466   1.1620   1.2070   1.2377   1.2445
  1.2619   1.2936   1.3055   1.3198   1.3296   1.3353   1.3619   1.3957
  1.4191   1.4447   1.4676   1.4795   1.4846   1.5000   1.5120   1.5265
  1.6119   1.6533   1.6599   1.6769   1.6987   1.7419   1.7472   1.7906
  1.7998   1.8047   1.8478   1.8673   1.8751   1.8874   1.8957   1.9305
  1.9412   1.9505   1.9639   1.9985   2.0121   2.0218   2.0314   2.0687
  2.0867   2.1197   2.1271   2.1435   2.1723   2.1841   2.1989   2.2072
  2.2197   2.2457   2.2578   2.2934   2.3116   2.3230   2.3445   2.3606
  2.4126   2.4198   2.4675   2.4953   2.5081   2.5515   2.5967   2.6158
  2.6305   2.6439   2.6596   2.6796   2.7364   2.7402   2.7511   2.8214
  2.8454   2.8718   2.9501   3.0035   3.0596   3.1561   3.2196   3.2751
  3.3782   3.9870   4.0241   4.0925   4.1243   4.1633   4.1836   4.2019
  4.2634   4.3422   4.4357   4.4787   4.5400   4.7051   4.7367
 --------------------------------------------------------------
 
          Ground-State Mulliken Net Atomic Charges

     Atom                 Charge (a.u.)
  ----------------------------------------
      1 C                    -0.342606
      2 C                    -0.124239
      3 C                     0.335307
      4 C                    -0.219247
      5 C                    -0.003541
      6 C                     0.588998
      7 O                    -0.492565
      8 O                    -0.475858
      9 C                    -0.044722
     10 C                    -0.464600
     11 C                     0.294687
     12 C                    -0.111050
     13 C                    -0.346545
     14 O                    -0.489125
     15 H                     0.151198
     16 H                     0.149800
     17 H                     0.145844
     18 H                     0.162789
     19 H                     0.149925
     20 H                     0.169747
     21 H                     0.155818
     22 H                     0.151566
     23 H                     0.180058
     24 H                     0.169954
     25 H                     0.159435
     26 H                     0.148970
  ----------------------------------------
  Sum of atomic charges =     0.000000

 -----------------------------------------------------------------
                    Cartesian Multipole Moments
 -----------------------------------------------------------------
    Charge (ESU x 10^10)
                 0.0000
    Dipole Moment (Debye)
         X      -0.2264      Y       1.4484      Z      -0.1564
       Tot       1.4743
    Quadrupole Moments (Debye-Ang)
        XX     -66.6430     XY      -4.6002     YY     -80.7334
        XZ      -0.7681     YZ       0.4327     ZZ     -83.5078
    Octopole Moments (Debye-Ang^2)
       XXX     -21.0990    XXY      -5.3353    XYY      11.0718
       YYY      18.7371    XXZ       0.8414    XYZ      -1.4038
       YYZ      -1.5259    XZZ     -12.7368    YZZ      -3.0782
       ZZZ       3.1220
    Hexadecapole Moments (Debye-Ang^3)
      XXXX   -2874.9809   XXXY       0.9151   XXYY    -719.5378
      XYYY     -29.0136   YYYY   -1147.4229   XXXZ     -38.1409
      XXYZ       1.4420   XYYZ      -0.5034   YYYZ       0.0076
      XXZZ    -591.4897   XYZZ      15.5586   YYZZ    -244.5335
      XZZZ      -5.1731   YZZZ      -4.1927   ZZZZ    -156.0599
 -----------------------------------------------------------------
Archival summary:
1\1\nia0005.scinet.local\SP\ProcedureUnspecified\6-31G*\31112\rhickman\MonFeb708:35:172022MonFeb708:35:172022\0\\#,ProcedureUnspecified,6-31G*,\\0,1\O\C,1,1.34434\C,1,1.35638,2,108.627\C,3,1.37195,1,109.477,2,0.0397997,0\H,4,1.06959,3,128.015,1,179.999,0\C,2,1.39103,1,109.223,3,-0.00928625,0\C,2,1.43834,1,119.592,3,-179.873,0\H,7,1.07854,2,114.804,1,179.606,0\C,7,1.3318,2,123.561,1,-0.45863,0\H,9,1.07549,7,121.526,2,179.994,0\H,9,1.07685,7,121.441,2,-0.0376622,0\C,3,1.43997,1,117.878,2,-179.966,0\H,12,1.08167,3,114.406,1,0.0465273,0\C,12,1.32962,3,124.739,1,-179.958,0\H,14,1.07534,12,121.363,3,-179.993,0\H,14,1.07579,12,121.828,3,0.00674124,0\C,6,1.46541,2,130.889,1,-179.889,0\O,17,1.20758,6,123.489,2,178.663,0\O,17,1.34406,6,113.059,2,-1.90572,0\C,19,1.42738,17,116.596,6,179.253,0\H,20,1.09224,19,105.006,17,156.708,0\H,20,1.09502,19,108.885,17,38.9943,0\C,20,1.52211,19,111.514,17,-82.7528,0\H,23,1.08623,20,109.593,19,-176.376,0\H,23,1.08717,20,109.855,19,63.9892,0\H,23,1.08756,20,110.295,19,-56.1708,0\\\@

 Total job time:  39.27s(wall), 39.15s(cpu) 
 Mon Feb  7 08:35:17 2022

        *************************************************************
        *                                                           *
        *  Thank you very much for using Q-Chem.  Have a nice day.  *
        *                                                           *
        *************************************************************


