
Running Job 1 of 1 fragments/A026/conf-1/spe_input.inp
qchem fragments/A026/conf-1/spe_input.inp_242676.0 /gpfs/fs0/scratch/a/aspuru/rhickman/descriptor_computation/qchem242676/ 0
/scinet/niagara/software/commercial/qc52/exe/qcprog.exe_s fragments/A026/conf-1/spe_input.inp_242676.0 /gpfs/fs0/scratch/a/aspuru/rhickman/descriptor_computation/qchem242676/
                  Welcome to Q-Chem
     A Quantum Leap Into The Future Of Chemistry


 Q-Chem 5.2, Q-Chem, Inc., Pleasanton, CA (2019)

 License issued to: SRG Alan Aspuru-Guzik, University of Toronto

 Yihan Shao,  Zhengting Gan,  E. Epifanovsky,  A. T. B. Gilbert,  M. Wormit,  
 J. Kussmann,  A. W. Lange,  A. Behn,  Jia Deng,  Xintian Feng,  D. Ghosh,  
 M. Goldey,  P. R. Horn,  L. D. Jacobson,  I. Kaliman,  T. Kus,  A. Landau,  
 Jie Liu,  E. I. Proynov,  R. M. Richard,  R. P. Steele,  E. J. Sundstrom,  
 H. L. Woodcock III,  P. M. Zimmerman,  D. Zuev,  B. Albrecht,  E. Alguire,  
 S. A. Baeppler,  D. Barton,  Z. Benda,  Y. A. Bernard,  E. J. Berquist,  
 K. B. Bravaya,  H. Burton,  D. Casanova,  Chun-Min Chang,  Yunqing Chen,  
 A. Chien,  K. D. Closser,  M. P. Coons,  S. Coriani,  S. Dasgupta,  
 A. L. Dempwolff,  M. Diedenhofen,  Hainam Do,  R. G. Edgar,  Po-Tung Fang,  
 S. Faraji,  S. Fatehi,  Qingguo Feng,  K. D. Fenk,  J. Fosso-Tande,  
 J. Gayvert,  Qinghui Ge,  A. Ghysels,  G. Gidofalvi,  J. Gomes,  
 J. Gonthier,  A. Gunina,  D. Hait,  M. W. D. Hanson-Heine,  
 P. H. P. Harbach,  A. W. Hauser,  M. F. Herbst,  J. E. Herr,  
 E. G. Hohenstein,  Z. C. Holden,  Kerwin Hui,  B. C. Huynh,  T.-C. Jagau,  
 Hyunjun Ji,  B. Kaduk,  K. Khistyaev,  Jaehoon Kim,  P. Klunzinger,  K. Koh,  
 D. Kosenkov,  L. Koulias,  T. Kowalczyk,  C. M. Krauter,  A. Kunitsa,  
 Ka Un Lao,  A. Laurent,  K. V. Lawler,  Joonho Lee,  D. Lefrancois,  
 S. Lehtola,  D. S. Levine,  Yi-Pei Li,  You-Sheng Lin,  Fenglai Liu,  
 E. Livshits,  A. Luenser,  P. Manohar,  E. Mansoor,  S. F. Manzer,  
 Shan-Ping Mao,  Yuezhi Mao,  N. Mardirossian,  A. V. Marenich,  
 T. Markovich,  L. A. Martinez-Martinez,  S. A. Maurer,  N. J. Mayhall,  
 S. C. McKenzie,  J.-M. Mewes,  P. Morgante,  A. F. Morrison,  
 J. W. Mullinax,  K. Nanda,  T. S. Nguyen-Beck,  R. Olivares-Amaya,  
 J. A. Parkhill,  Zheng Pei,  T. M. Perrine,  F. Plasser,  P. Pokhilko,  
 S. Prager,  A. Prociuk,  E. Ramos,  D. R. Rehn,  F. Rob,  M. Scheurer,  
 M. Schneider,  N. Sergueev,  S. M. Sharada,  S. Sharma,  D. W. Small,  
 T. Stauch,  T. Stein,  Yu-Chuan Su,  A. J. W. Thom,  A. Tkatchenko,  
 T. Tsuchimochi,  N. M. Tubman,  L. Vogt,  M. L. Vidal,  O. Vydrov,  
 M. A. Watson,  J. Wenzel,  M. de Wergifosse,  T. A. Wesolowski,  A. White,  
 J. Witte,  A. Yamada,  Jun Yang,  K. Yao,  S. Yeganeh,  S. R. Yost,  
 Zhi-Qiang You,  A. Zech,  Igor Ying Zhang,  Xing Zhang,  Yan Zhao,  
 Ying Zhu,  B. R. Brooks,  G. K. L. Chan,  C. J. Cramer,  M. S. Gordon,  
 W. J. Hehre,  A. Klamt,  M. W. Schmidt,  C. D. Sherrill,  D. G. Truhlar,  
 A. Aspuru-Guzik,  R. Baer,  A. T. Bell,  N. A. Besley,  Jeng-Da Chai,  
 A. E. DePrince, III,  R. A. DiStasio Jr.,  A. Dreuw,  B. D. Dunietz,  
 T. R. Furlani,  Chao-Ping Hsu,  Yousung Jung,  Jing Kong,  D. S. Lambrecht,  
 WanZhen Liang,  C. Ochsenfeld,  V. A. Rassolov,  L. V. Slipchenko,  
 J. E. Subotnik,  T. Van Voorhis,  J. M. Herbert,  A. I. Krylov,  
 P. M. W. Gill,  M. Head-Gordon

 Contributors to earlier versions of Q-Chem not listed above: 
 R. D. Adamson,  B. Austin,  J. Baker,  G. J. O. Beran,  K. Brandhorst,  
 S. T. Brown,  E. F. C. Byrd,  A. K. Chakraborty,  C.-L. Cheng,  
 Siu Hung Chien,  D. M. Chipman,  D. L. Crittenden,  H. Dachsel,  
 R. J. Doerksen,  A. D. Dutoi,  L. Fusti-Molnar,  W. A. Goddard III,  
 A. Golubeva-Zadorozhnaya,  S. R. Gwaltney,  G. Hawkins,  A. Heyden,  
 S. Hirata,  G. Kedziora,  F. J. Keil,  C. Kelley,  Jihan Kim,  R. A. King,  
 R. Z. Khaliullin,  P. P. Korambath,  W. Kurlancheek,  A. M. Lee,  M. S. Lee,  
 S. V. Levchenko,  Ching Yeh Lin,  D. Liotard,  R. C. Lochan,  I. Lotan,  
 P. E. Maslen,  N. Nair,  D. P. O'Neill,  D. Neuhauser,  E. Neuscamman,  
 C. M. Oana,  R. Olson,  B. Peters,  R. Peverati,  P. A. Pieniazek,  
 Y. M. Rhee,  J. Ritchie,  M. A. Rohrdanz,  E. Rosta,  N. J. Russ,  
 H. F. Schaefer III,  N. E. Schultz,  N. Shenvi,  A. C. Simmonett,  A. Sodt,  
 D. Stuck,  K. S. Thanthiriwatte,  V. Vanovschi,  Tao Wang,  A. Warshel,  
 C. F. Williams,  Q. Wu,  X. Xu,  W. Zhang

 Please cite Q-Chem as follows:
 Y. Shao et al., Mol. Phys. 113, 184-215 (2015)
 DOI: 10.1080/00268976.2014.952696

 Q-Chem 5.2.1 for Intel X86 EM64T Linux

 Parts of Q-Chem use Armadillo 8.300.2 (Tropical Shenanigans).
 http://arma.sourceforge.net/

 Q-Chem begins on Mon Feb  7 08:01:49 2022  

Host: 
0

     Scratch files written to /gpfs/fs0/scratch/a/aspuru/rhickman/descriptor_computation/qchem242676//
 Jul1719 |scratch|qcdevops|jenkins|workspace|build_RNUM -1
Processing $rem in /scinet/niagara/software/commercial/qc52/config/preferences:
	 MEM_TOTAL  4000 
NAlpha2: 190
NElect   190
Mult     1

Checking the input file for inconsistencies... 	...done.

--------------------------------------------------------------
User input:
--------------------------------------------------------------
$molecule
0 1
C        -0.00642799270000    5.17934028580000   -0.10920587300000
O        -1.37938610430000    4.88797400010000   -0.18059178650000
C        -1.77304842500000    3.58244203640000   -0.14687028750000
C        -3.15984398810000    3.37944881020000   -0.22056010440000
C        -3.70024527780000    2.11519648050000   -0.17643553510000
C        -0.90284990640000    2.50588676580000   -0.04556520370000
C        -1.45338101870000    1.23173768840000   -0.02987022800000
C        -2.84723290750000    1.02264561900000   -0.07522199300000
C        -3.05273328140000   -0.39519181360000    0.01993965230000
C        -4.17575660520000   -1.20636455360000    0.01005767630000
C        -4.02457420990000   -2.57737913530000    0.09889151680000
C        -2.75331244210000   -3.15212382440000    0.18113681280000
O        -2.51665646040000   -4.49551131020000    0.25446389200000
C        -3.61115589380000   -5.37729441970000    0.23501121890000
C        -1.61158744280000   -2.35369834220000    0.19136406310000
C        -1.77089882470000   -0.98275178750000    0.12849643230000
N        -0.81054901150000    0.01260268380000    0.09406843300000
C         0.56994302700000   -0.18126525860000    0.16696202350000
C         1.11821555230000   -0.99494464520000    1.15729722340000
C         2.48179646480000   -1.18174808370000    1.22300410450000
C         3.34323996460000   -0.55982014270000    0.31459710220000
C         4.76955526730000   -0.79826843600000    0.44939651320000
C         5.76328730800000   -0.28977792930000   -0.26504491080000
F         5.68974092680000    0.56605260920000   -1.27832439960000
F         7.04340589100000   -0.58519449930000   -0.04363359800000
C         2.78531036880000    0.25399835750000   -0.67433737100000
C         1.42042042730000    0.43613527530000   -0.74907333230000
H         0.06775742710000    6.26469888170000   -0.15596262740000
H         0.54279131530000    4.74382834370000   -0.95071246030000
H         0.43259550420000    4.82790659460000    0.83057447870000
H        -3.78774748070000    4.25212840740000   -0.30093383880000
H        -4.76914741320000    1.97370445730000   -0.21553220390000
H         0.16337436480000    2.64113031200000    0.03550424450000
H        -5.16160921710000   -0.77463822300000   -0.07025313000000
H        -4.90499722570000   -3.19959630800000    0.09377128200000
H        -3.18362759010000   -6.37720922740000    0.29435940380000
H        -4.18678673420000   -5.28600332020000   -0.69192819690000
H        -4.27400408670000   -5.21772751930000    1.09190593270000
H        -0.64437580120000   -2.82728811440000    0.23412001070000
H         0.46837898450000   -1.46304073920000    1.88050285040000
H         2.89404954560000   -1.81210294410000    1.99718751110000
H         5.07228368700000   -1.47634941430000    1.23442329590000
H         3.41633274700000    0.73958976370000   -1.40037887940000
H         0.99979185660000    1.04367478890000   -1.53594476150000
$end

$rem
BASIS = 6-31G*
GUI = 2
METHOD = B3LYP
PRINT_ORBITALS false
MOLDEN_FORMAT false
--------------------------------------------------------------
 ----------------------------------------------------------------
             Standard Nuclear Orientation (Angstroms)
    I     Atom           X                Y                Z
 ----------------------------------------------------------------
    1      C       0.9108185789    -5.0994083687    -0.2513570692
    2      O      -0.4883337615    -5.0415723490    -0.1329004931
    3      C      -1.0885670393    -3.8185507820    -0.0661237811
    4      C      -2.4870221526    -3.8501143497     0.0486168405
    5      C      -3.2256478186    -2.6909869900     0.1049229159
    6      C      -0.4072223520    -2.6100229255    -0.1074670931
    7      C      -1.1565675164    -1.4447124953    -0.0219093049
    8      C      -2.5638364996    -1.4695268864     0.0651402150
    9      C      -2.9984931726    -0.1011242581     0.0749865913
   10      C      -4.2369663108     0.5132878779     0.1642181240
   11      C      -4.3120368900     1.8934175068     0.1701482679
   12      C      -3.1534409053     2.6722199657     0.1043888364
   13      O      -3.1392631123     4.0380734667     0.1221667769
   14      C      -4.3607136591     4.7260038844     0.2254100367
   15      C      -1.8985903833     2.0734317145     0.0153572745
   16      C      -1.8323448391     0.6937810898    -0.0163064741
   17      N      -0.7232208153    -0.1314509722    -0.0712930002
   18      C       0.6049321321     0.2896618041    -0.1569101761
   19      C       0.9839541442     1.2464276851    -1.0973260828
   20      C       2.2967875429     1.6573442183    -1.1759511030
   21      C       3.2748097840     1.1249846777    -0.3308781095
   22      C       4.6390638584     1.6016067507    -0.4759506170
   23      C       5.7233058340     1.2154966885     0.1811877784
   24      F       5.8200612813     0.2932171156     1.1323076846
   25      F       6.9314961581     1.7301236588    -0.0433845439
   26      C       2.8862416802     0.1665988984     0.6083177722
   27      C       1.5716399210    -0.2405429091     0.6963043419
   28      H       1.1607556331    -6.1587495383    -0.2833055860
   29      H       1.4079973299    -4.6374246055     0.6081952146
   30      H       1.2582985997    -4.6188569259    -1.1720971658
   31      H      -2.9629447850    -4.8170029654     0.0788900197
   32      H      -4.3016610891    -2.7288639131     0.1746444878
   33      H       0.6638539351    -2.5636213135    -0.2185515047
   34      H      -5.1371998798    -0.0780102704     0.2326932556
   35      H      -5.2808335191     2.3617705104     0.2365084151
   36      H      -4.1023484211     5.7840051231     0.2290243024
   37      H      -4.8853586870     4.4800667190     1.1544762966
   38      H      -5.0150224648     4.5181113221    -0.6276776155
   39      H      -1.0223558876     2.7003769141    -0.0123289720
   40      H       0.2451840791     1.6495153184    -1.7727274804
   41      H       2.5778790924     2.3969752097    -1.9112016298
   42      H       4.8040793999     2.3710579974    -1.2165044697
   43      H       3.6093666985    -0.2569713490     1.2856677415
   44      H       1.2789900888    -0.9599341211     1.4459920509
 ----------------------------------------------------------------
 Molecular Point Group                 C1    NOp =  1
 Largest Abelian Subgroup              C1    NOp =  1
 Nuclear Repulsion Energy =        2290.42117726 hartrees
 There are       95 alpha and       95 beta electrons
 Requested basis set is 6-31G(d)
 There are 142 shells and 439 basis functions

 Total QAlloc Memory Limit   4000 MB
 Mega-Array Size       188 MB
 MEM_STATIC part       192 MB
 A cutoff of  1.0D-08 yielded   4280 shell pairs
 There are     44560 function pairs
 Smallest overlap matrix eigenvalue = 2.43E-04

 Scale SEOQF with 1.000000e-02/1.000000e-02/1.000000e-01

 Standard Electronic Orientation quadrupole field applied
 Nucleus-field energy     =     0.0000000115 hartrees
 Guess from superposition of atomic densities
 Warning:  Energy on first SCF cycle will be non-variational
 SAD guess density has 190.000000 electrons

 -----------------------------------------------------------------------
  General SCF calculation program by
  Eric Jon Sundstrom, Paul Horn, Yuezhi Mao, Dmitri Zuev, Alec White,
  David Stuck, Shaama M.S., Shane Yost, Joonho Lee, David Small,
  Daniel Levine, Susi Lehtola, Hugh Burton, Evgeny Epifanovsky,
  Bang C. Huynh
 -----------------------------------------------------------------------
 Exchange:     0.2000 Hartree-Fock + 0.0800 Slater + 0.7200 B88
 Correlation:  0.1900 VWN1RPA + 0.8100 LYP
 Using SG-1 standard quadrature grid
 A restricted SCF calculation will be
 performed using DIIS
 SCF converges when DIIS error is below 1.0e-05
 ---------------------------------------
  Cycle       Energy         DIIS error
 ---------------------------------------
    1   -1260.4203855314      3.97e-02  
    2   -1253.0684234224      3.83e-03  
    3   -1252.8695572654      4.83e-03  
    4   -1253.3944667154      1.18e-03  
    5   -1253.4262250017      3.96e-04  
    6   -1253.4292972689      2.07e-04  
    7   -1253.4303847429      4.73e-05  
    8   -1253.4304269336      2.22e-05  
    9   -1253.4304392564      4.60e-06  Convergence criterion met
 ---------------------------------------
 SCF time:   CPU 154.55s  wall 155.00s 
 SCF   energy in the final basis set =    -1253.4304392564
 Total energy in the final basis set =    -1253.4304392564
 
 --------------------------------------------------------------
 
                    Orbital Energies (a.u.)
 --------------------------------------------------------------
 
 Alpha MOs
 -- Occupied --
-24.7485 -24.7377 -19.1728 -19.1713 -14.3803 -10.3607 -10.2405 -10.2397
-10.2365 -10.2363 -10.2357 -10.2195 -10.2185 -10.2119 -10.2075 -10.1992
-10.1974 -10.1970 -10.1967 -10.1839 -10.1829 -10.1805 -10.1766 -10.1759
-10.1758 -10.1756 -10.1712  -1.2891  -1.2282  -1.0628  -1.0610  -0.9993
 -0.8800  -0.8489  -0.8444  -0.8124  -0.7819  -0.7648  -0.7534  -0.7516
 -0.7391  -0.7172  -0.7070  -0.6736  -0.6571  -0.6321  -0.6310  -0.6110
 -0.6042  -0.5785  -0.5764  -0.5726  -0.5470  -0.5381  -0.5342  -0.5227
 -0.5102  -0.4958  -0.4875  -0.4754  -0.4710  -0.4674  -0.4663  -0.4626
 -0.4590  -0.4523  -0.4446  -0.4406  -0.4372  -0.4338  -0.4319  -0.4207
 -0.4167  -0.4122  -0.4071  -0.4017  -0.3860  -0.3848  -0.3709  -0.3678
 -0.3603  -0.3532  -0.3467  -0.3451  -0.3267  -0.3225  -0.3200  -0.3029
 -0.2968  -0.2650  -0.2518  -0.2393  -0.2336  -0.1943  -0.1837
 -- Virtual --
 -0.0364  -0.0120  -0.0108   0.0110   0.0348   0.0603   0.0646   0.0818
  0.1001   0.1019   0.1098   0.1174   0.1212   0.1363   0.1371   0.1471
  0.1500   0.1548   0.1590   0.1606   0.1665   0.1688   0.1705   0.1719
  0.1775   0.1798   0.1837   0.1920   0.2048   0.2111   0.2171   0.2204
  0.2342   0.2670   0.2678   0.2752   0.2822   0.2922   0.2978   0.3122
  0.3138   0.3269   0.3353   0.3514   0.3678   0.3880   0.4073   0.4118
  0.4297   0.4401   0.4473   0.4526   0.4765   0.4918   0.4936   0.5067
  0.5126   0.5210   0.5224   0.5272   0.5310   0.5336   0.5359   0.5424
  0.5492   0.5515   0.5570   0.5600   0.5603   0.5675   0.5725   0.5752
  0.5806   0.5823   0.5864   0.5897   0.5929   0.6000   0.6031   0.6075
  0.6094   0.6133   0.6211   0.6271   0.6361   0.6413   0.6481   0.6534
  0.6609   0.6663   0.6685   0.6792   0.7011   0.7160   0.7230   0.7313
  0.7446   0.7459   0.7582   0.7752   0.7913   0.8010   0.8081   0.8157
  0.8240   0.8342   0.8397   0.8419   0.8461   0.8483   0.8536   0.8606
  0.8659   0.8696   0.8731   0.8755   0.8781   0.8815   0.8871   0.9035
  0.9171   0.9210   0.9303   0.9345   0.9441   0.9470   0.9511   0.9558
  0.9746   0.9811   0.9897   1.0030   1.0137   1.0236   1.0405   1.0502
  1.0594   1.0651   1.0707   1.0739   1.0822   1.0876   1.1104   1.1284
  1.1343   1.1496   1.1563   1.1617   1.1647   1.1812   1.1960   1.2101
  1.2145   1.2200   1.2290   1.2424   1.2508   1.2600   1.2662   1.2732
  1.2835   1.2940   1.3047   1.3368   1.3384   1.3533   1.3622   1.3717
  1.3847   1.3860   1.3997   1.4103   1.4241   1.4362   1.4414   1.4471
  1.4512   1.4631   1.4644   1.4706   1.4804   1.4849   1.4881   1.4917
  1.4984   1.5085   1.5148   1.5272   1.5340   1.5551   1.5935   1.6034
  1.6285   1.6584   1.6753   1.7050   1.7198   1.7312   1.7395   1.7655
  1.7700   1.7776   1.7800   1.7844   1.7960   1.8116   1.8274   1.8327
  1.8332   1.8482   1.8592   1.8612   1.8757   1.8822   1.8935   1.9007
  1.9049   1.9122   1.9357   1.9481   1.9537   1.9648   1.9659   1.9691
  1.9712   1.9802   1.9900   1.9964   2.0117   2.0177   2.0242   2.0276
  2.0321   2.0642   2.0726   2.0812   2.0973   2.1068   2.1096   2.1188
  2.1223   2.1239   2.1311   2.1476   2.1524   2.1534   2.1588   2.1879
  2.1980   2.2157   2.2229   2.2302   2.2347   2.2409   2.2612   2.2663
  2.2731   2.2999   2.3047   2.3149   2.3171   2.3391   2.3401   2.3482
  2.3502   2.3710   2.3830   2.4026   2.4149   2.4269   2.4720   2.4889
  2.5190   2.5208   2.5370   2.5450   2.5605   2.5821   2.6003   2.6107
  2.6152   2.6264   2.6385   2.6548   2.6679   2.6738   2.6780   2.6892
  2.7019   2.7270   2.7383   2.7538   2.7680   2.7855   2.8004   2.8122
  2.8223   2.8414   2.8802   2.8891   2.9130   2.9395   2.9746   2.9841
  3.0006   3.0225   3.0546   3.1158   3.1238   3.1464   3.2071   3.2928
  3.3192   3.3878   3.4161   3.4973   3.5814   4.0589   4.0627   4.0724
  4.1020   4.1091   4.1273   4.1480   4.1626   4.1648   4.1783   4.1972
  4.2519   4.2852   4.3015   4.3474   4.3535   4.3913   4.4107   4.4449
  4.5149   4.6054   4.6469   4.7212   4.7944   4.8349   4.9020   5.2838
 --------------------------------------------------------------
 
          Ground-State Mulliken Net Atomic Charges

     Atom                 Charge (a.u.)
  ----------------------------------------
      1 C                    -0.210343
      2 O                    -0.509271
      3 C                     0.381316
      4 C                    -0.193231
      5 C                    -0.195405
      6 C                    -0.269728
      7 C                     0.314456
      8 C                     0.060069
      9 C                     0.064592
     10 C                    -0.207384
     11 C                    -0.216597
     12 C                     0.384690
     13 O                    -0.512811
     14 C                    -0.211685
     15 C                    -0.252109
     16 C                     0.326286
     17 N                    -0.748254
     18 C                     0.291456
     19 C                    -0.159413
     20 C                    -0.208533
     21 C                     0.203646
     22 C                    -0.299648
     23 C                     0.543908
     24 F                    -0.234927
     25 F                    -0.247270
     26 C                    -0.209299
     27 C                    -0.163110
     28 H                     0.167923
     29 H                     0.146680
     30 H                     0.150705
     31 H                     0.129568
     32 H                     0.129251
     33 H                     0.141859
     34 H                     0.129523
     35 H                     0.123440
     36 H                     0.166059
     37 H                     0.149630
     38 H                     0.148712
     39 H                     0.143866
     40 H                     0.156727
     41 H                     0.135342
     42 H                     0.161424
     43 H                     0.143804
     44 H                     0.154086
  ----------------------------------------
  Sum of atomic charges =     0.000000

 -----------------------------------------------------------------
                    Cartesian Multipole Moments
 -----------------------------------------------------------------
    Charge (ESU x 10^10)
                 0.0000
    Dipole Moment (Debye)
         X       0.2261      Y       1.1115      Z      -0.5814
       Tot       1.2746
    Quadrupole Moments (Debye-Ang)
        XX    -141.5584     XY     -12.3861     YY    -143.0329
        XZ      -3.3572     YZ      -2.9694     ZZ    -153.3589
    Octopole Moments (Debye-Ang^2)
       XXX     -65.8889    XXY      38.2847    XYY      20.1629
       YYY      49.1630    XXZ       0.0679    XYZ     -10.5015
       YYZ      -4.7151    XZZ      44.2639    YZZ      12.2642
       ZZZ       6.5340
    Hexadecapole Moments (Debye-Ang^3)
      XXXX   -9528.1483   XXXY    -244.1259   XXYY   -2278.7270
      XYYY    -370.6513   YYYY   -5914.6273   XXXZ     -44.0421
      XXYZ     -13.7189   XYYZ     -35.8279   YYYZ      22.3347
      XXZZ   -1681.7149   XYZZ      17.0032   YYZZ   -1109.0131
      XZZZ      51.8938   YZZZ      -5.7283   ZZZZ    -375.5119
 -----------------------------------------------------------------
Archival summary:
1\1\nia0005.scinet.local\SP\ProcedureUnspecified\6-31G*\2212217\rhickman\MonFeb708:04:272022MonFeb708:04:272022\0\\#,ProcedureUnspecified,6-31G*,\\0,1\N\C,1,1.38354\C,2,1.3816,1,129.418\H,3,1.07778,2,122.773,1,0.728248,0\C,1,1.38379,2,108.276,3,177.263,0\C,5,1.38809,1,128.716,2,176.896,0\H,6,1.07782,5,120.442,1,0.68163,0\C,6,1.38798,5,117.654,1,-178.317,0\O,8,1.36401,6,124.28,5,-179.675,0\C,3,1.39324,2,118.283,1,-178.415,0\O,10,1.36604,3,114.911,2,-179.6,0\C,1,1.39594,2,125.819,3,-2.52139,0\C,12,1.39407,1,120.47,2,-48.6897,0\H,13,1.07909,12,119.502,1,-1.01913,0\C,13,1.37788,12,120.146,1,179.995,0\H,15,1.08012,13,119.407,12,179.803,0\C,12,1.39414,1,120.496,2,131.329,0\H,17,1.07944,12,119.374,1,-1.82464,0\C,17,1.37902,12,120.643,1,179.557,0\H,19,1.07755,17,118.919,12,179.628,0\C,19,1.39699,17,120.704,12,0.442468,0\C,10,1.39757,3,120.675,2,0.484867,0\H,22,1.07811,10,120.382,3,-179.849,0\C,22,1.38218,10,120.744,3,0.769807,0\H,24,1.07923,22,120.099,10,178.936,0\C,24,1.38538,22,119.45,10,-0.81796,0\C,8,1.40351,6,120.74,5,0.4481,0\H,27,1.0781,8,117.537,6,-179.827,0\C,27,1.37561,8,121.292,6,0.905683,0\H,29,1.07893,27,120.567,8,178.856,0\C,29,1.3898,27,118.928,8,-0.888553,0\C,9,1.40535,8,118.629,6,0.00648149,0\H,32,1.0889,9,105.726,8,179.827,0\H,32,1.09519,9,111.635,8,-61.5009,0\H,32,1.09519,9,111.62,8,61.1748,0\C,11,1.40565,10,118.769,3,-179.297,0\H,36,1.0891,11,105.636,10,179.519,0\H,36,1.09494,11,111.639,10,60.9224,0\H,36,1.09503,11,111.659,10,-61.8941,0\C,21,1.45238,19,123.611,17,179.836,0\H,40,1.0806,21,116.46,19,-177.879,0\C,40,1.32533,21,128.559,19,2.29312,0\F,42,1.32838,40,128.088,21,0.155187,0\F,42,1.33229,40,123.078,21,179.905,0\\\@

 Total job time:  157.89s(wall), 155.07s(cpu) 
 Mon Feb  7 08:04:27 2022

        *************************************************************
        *                                                           *
        *  Thank you very much for using Q-Chem.  Have a nice day.  *
        *                                                           *
        *************************************************************


