29
 energy: -51.518159960439 gnorm: 0.000107710764 xtb: 6.5.0 (unknown)
C           -2.01466182410000        3.94570832650000       -0.00717071720000
C           -0.80382859900000        3.41674736270000        0.11888445330000
C           -0.46701438660000        1.99656524690000        0.10863401460000
C           -1.43283638690000        0.99367064860000        0.03867979430000
C           -1.07998634440000       -0.35465557810000        0.02867597200000
C           -2.05543562800000       -1.43336837170000       -0.04436015170000
C           -3.37481587780000       -1.35108335980000       -0.12748308010000
F           -4.12721149980000       -0.25801875590000       -0.16452666820000
F           -4.16672116120000       -2.41895776790000       -0.18961303840000
C            0.26950761240000       -0.70359168260000        0.09277229280000
C            1.24252013720000        0.28409402650000        0.16569135770000
C            2.69003480950000       -0.04488242170000        0.23726819880000
O            3.56622003310000        0.78357091060000        0.28612915350000
O            2.91200721210000       -1.36519679610000        0.25369639770000
C            4.27401655000000       -1.78903652220000        0.30805627150000
C            4.91200419460000       -1.79402031010000       -1.07375673260000
C            0.87441514960000        1.62427578760000        0.17348712520000
H           -2.16022029400000        5.01202875910000        0.01077809170000
H           -2.90429003050000        3.35334679840000       -0.13544093420000
H            0.04818288470000        4.07428444210000        0.23705728380000
H           -2.47136857770000        1.27277429050000       -0.00432314820000
H           -1.65989156380000       -2.43883685140000       -0.03109288950000
H            0.56476373680000       -1.74086746730000        0.08729200340000
H            4.24045907700000       -2.79537304870000        0.73096218390000
H            4.82663547000000       -1.12057582300000        0.97654011220000
H            4.33758093980000       -2.42029145060000       -1.75233044240000
H            5.92516708540000       -2.17945453500000       -1.00522288870000
H            4.94612331970000       -0.78198216690000       -1.46951713820000
H            1.65311778800000        2.37052646980000        0.23052758040000
