22
 energy: -34.711650644456 gnorm: 0.000065617907 xtb: 6.4.1 (23d549d)
C        -3.80731648590000   -1.46429504520000   -0.00018849480000
C        -3.14274831340000   -0.31619217600000   -0.00001430880000
C        -1.69386877820000   -0.15449881380000    0.00049315760000
C        -0.78392233100000   -1.23806697620000    0.00108968490000
C         0.57901995760000   -1.02633459070000    0.00067425090000
C         1.50926280660000   -2.14038758410000    0.00074291020000
C         2.83198352730000   -2.01533647460000    0.00091928270000
C         1.00118514430000    0.32486875830000   -0.00007156420000
N         2.19748521920000    0.88383367660000   -0.00070333050000
C         1.98596412530000    2.21311504650000   -0.00131369770000
C         0.64273404340000    2.50559194800000   -0.00105388030000
N         0.01118373850000    1.30792443350000   -0.00025407830000
N        -1.28998704490000    1.09713131510000   -0.00012150370000
H        -4.88335773560000   -1.48310182050000   -0.00105374690000
H        -3.32080884270000   -2.42485292550000    0.00071203890000
H        -3.67470265080000    0.62515252570000   -0.00088640570000
H        -1.16245922360000   -2.24725998750000    0.00182808430000
H         1.04422550570000   -3.11894780580000    0.00059194090000
H         3.29204523740000   -1.04221220650000    0.00085258940000
H         3.47604626450000   -2.87845857920000    0.00107655680000
H         2.81301696040000    2.89564897810000   -0.00195036890000
H         0.10865096530000    3.43171638840000   -0.00139901770000
