17
 energy: -32.832481431483 gnorm: 0.000084437091 xtb: 6.5.0 (unknown)
C            1.57321561030000       -2.58343928780000       -0.50425927880000
C            0.81468943420000       -1.71263184680000        0.14706924960000
C            0.98801742950000       -0.26969392290000        0.11022407700000
C            2.18288230410000        0.35768361440000       -0.09584143310000
S            2.07942628860000        2.06398495880000        0.03991355770000
C            0.40633582360000        1.96232893200000        0.39038743400000
C           -0.05567936960000        0.67716104560000        0.38386734340000
C           -1.45814216760000        0.36736509750000        0.61605741540000
C           -2.16448108960000       -0.55466014270000       -0.01744752320000
F           -1.75590142230000       -1.35641071880000       -0.99222318440000
F           -3.45184832880000       -0.79151693570000        0.23157483740000
H            1.40713389330000       -3.64327030900000       -0.42426173960000
H            2.37250895090000       -2.26981853380000       -1.15383260070000
H            0.00164608530000       -2.06345887570000        0.76924703910000
H            3.13421507830000       -0.09522373650000       -0.28942085970000
H           -0.15838885860000        2.85827489750000        0.55631360990000
H           -1.98948429240000        0.97278205370000        1.33514321230000
