23
 energy: -38.823034427463 gnorm: 0.000038550232 xtb: 6.4.1 (23d549d)
C        -3.95060996790000   -0.50388565290000    0.33463024900000
C        -2.92244610240000   -1.22784094750000   -0.10038300750000
C        -1.53489315210000   -0.83909782500000   -0.08575980460000
N        -0.56338136080000   -1.81343017790000   -0.06592024920000
C         0.65352837640000   -1.23885500980000   -0.02153889520000
N         1.82224322110000   -1.92291335730000    0.00978342000000
C         2.87034652840000   -1.17684177250000    0.02858228960000
N         2.84146322630000    0.17580696020000    0.02169235760000
C         1.67596569980000    0.97274877520000   -0.00291434250000
O         1.80724614810000    2.17854594350000    0.00524974800000
C         0.49063503410000    0.15702738250000   -0.02559440390000
C        -0.91501436850000    0.40934115740000   -0.07766502150000
C        -1.60979053680000    1.67241813200000   -0.20997805990000
C        -1.14445772130000    2.86274530780000    0.14878684980000
H        -4.95776055510000   -0.87889072610000    0.27606722030000
H        -3.82215733880000    0.46705079270000    0.77809803780000
H        -3.10297634020000   -2.22685030830000   -0.48272344010000
H        -0.73012354220000   -2.80632126860000   -0.05101213590000
H         3.83989109670000   -1.65365635730000    0.05082125070000
H         3.70645194050000    0.70224173740000    0.03616169650000
H        -2.59512635920000    1.58876975610000   -0.65250937220000
H        -0.17077576520000    2.98803376420000    0.58587241210000
H        -1.72768585450000    3.75519137060000   -0.00441243920000
