
Running Job 1 of 1 fragments/A020/conf-0/spe_input.inp
qchem fragments/A020/conf-0/spe_input.inp_353703.0 /gpfs/fs0/scratch/a/aspuru/rhickman/descriptor_computation/qchem353703/ 0
/scinet/niagara/software/commercial/qc52/exe/qcprog.exe_s fragments/A020/conf-0/spe_input.inp_353703.0 /gpfs/fs0/scratch/a/aspuru/rhickman/descriptor_computation/qchem353703/
                  Welcome to Q-Chem
     A Quantum Leap Into The Future Of Chemistry


 Q-Chem 5.2, Q-Chem, Inc., Pleasanton, CA (2019)

 License issued to: SRG Alan Aspuru-Guzik, University of Toronto

 Yihan Shao,  Zhengting Gan,  E. Epifanovsky,  A. T. B. Gilbert,  M. Wormit,  
 J. Kussmann,  A. W. Lange,  A. Behn,  Jia Deng,  Xintian Feng,  D. Ghosh,  
 M. Goldey,  P. R. Horn,  L. D. Jacobson,  I. Kaliman,  T. Kus,  A. Landau,  
 Jie Liu,  E. I. Proynov,  R. M. Richard,  R. P. Steele,  E. J. Sundstrom,  
 H. L. Woodcock III,  P. M. Zimmerman,  D. Zuev,  B. Albrecht,  E. Alguire,  
 S. A. Baeppler,  D. Barton,  Z. Benda,  Y. A. Bernard,  E. J. Berquist,  
 K. B. Bravaya,  H. Burton,  D. Casanova,  Chun-Min Chang,  Yunqing Chen,  
 A. Chien,  K. D. Closser,  M. P. Coons,  S. Coriani,  S. Dasgupta,  
 A. L. Dempwolff,  M. Diedenhofen,  Hainam Do,  R. G. Edgar,  Po-Tung Fang,  
 S. Faraji,  S. Fatehi,  Qingguo Feng,  K. D. Fenk,  J. Fosso-Tande,  
 J. Gayvert,  Qinghui Ge,  A. Ghysels,  G. Gidofalvi,  J. Gomes,  
 J. Gonthier,  A. Gunina,  D. Hait,  M. W. D. Hanson-Heine,  
 P. H. P. Harbach,  A. W. Hauser,  M. F. Herbst,  J. E. Herr,  
 E. G. Hohenstein,  Z. C. Holden,  Kerwin Hui,  B. C. Huynh,  T.-C. Jagau,  
 Hyunjun Ji,  B. Kaduk,  K. Khistyaev,  Jaehoon Kim,  P. Klunzinger,  K. Koh,  
 D. Kosenkov,  L. Koulias,  T. Kowalczyk,  C. M. Krauter,  A. Kunitsa,  
 Ka Un Lao,  A. Laurent,  K. V. Lawler,  Joonho Lee,  D. Lefrancois,  
 S. Lehtola,  D. S. Levine,  Yi-Pei Li,  You-Sheng Lin,  Fenglai Liu,  
 E. Livshits,  A. Luenser,  P. Manohar,  E. Mansoor,  S. F. Manzer,  
 Shan-Ping Mao,  Yuezhi Mao,  N. Mardirossian,  A. V. Marenich,  
 T. Markovich,  L. A. Martinez-Martinez,  S. A. Maurer,  N. J. Mayhall,  
 S. C. McKenzie,  J.-M. Mewes,  P. Morgante,  A. F. Morrison,  
 J. W. Mullinax,  K. Nanda,  T. S. Nguyen-Beck,  R. Olivares-Amaya,  
 J. A. Parkhill,  Zheng Pei,  T. M. Perrine,  F. Plasser,  P. Pokhilko,  
 S. Prager,  A. Prociuk,  E. Ramos,  D. R. Rehn,  F. Rob,  M. Scheurer,  
 M. Schneider,  N. Sergueev,  S. M. Sharada,  S. Sharma,  D. W. Small,  
 T. Stauch,  T. Stein,  Yu-Chuan Su,  A. J. W. Thom,  A. Tkatchenko,  
 T. Tsuchimochi,  N. M. Tubman,  L. Vogt,  M. L. Vidal,  O. Vydrov,  
 M. A. Watson,  J. Wenzel,  M. de Wergifosse,  T. A. Wesolowski,  A. White,  
 J. Witte,  A. Yamada,  Jun Yang,  K. Yao,  S. Yeganeh,  S. R. Yost,  
 Zhi-Qiang You,  A. Zech,  Igor Ying Zhang,  Xing Zhang,  Yan Zhao,  
 Ying Zhu,  B. R. Brooks,  G. K. L. Chan,  C. J. Cramer,  M. S. Gordon,  
 W. J. Hehre,  A. Klamt,  M. W. Schmidt,  C. D. Sherrill,  D. G. Truhlar,  
 A. Aspuru-Guzik,  R. Baer,  A. T. Bell,  N. A. Besley,  Jeng-Da Chai,  
 A. E. DePrince, III,  R. A. DiStasio Jr.,  A. Dreuw,  B. D. Dunietz,  
 T. R. Furlani,  Chao-Ping Hsu,  Yousung Jung,  Jing Kong,  D. S. Lambrecht,  
 WanZhen Liang,  C. Ochsenfeld,  V. A. Rassolov,  L. V. Slipchenko,  
 J. E. Subotnik,  T. Van Voorhis,  J. M. Herbert,  A. I. Krylov,  
 P. M. W. Gill,  M. Head-Gordon

 Contributors to earlier versions of Q-Chem not listed above: 
 R. D. Adamson,  B. Austin,  J. Baker,  G. J. O. Beran,  K. Brandhorst,  
 S. T. Brown,  E. F. C. Byrd,  A. K. Chakraborty,  C.-L. Cheng,  
 Siu Hung Chien,  D. M. Chipman,  D. L. Crittenden,  H. Dachsel,  
 R. J. Doerksen,  A. D. Dutoi,  L. Fusti-Molnar,  W. A. Goddard III,  
 A. Golubeva-Zadorozhnaya,  S. R. Gwaltney,  G. Hawkins,  A. Heyden,  
 S. Hirata,  G. Kedziora,  F. J. Keil,  C. Kelley,  Jihan Kim,  R. A. King,  
 R. Z. Khaliullin,  P. P. Korambath,  W. Kurlancheek,  A. M. Lee,  M. S. Lee,  
 S. V. Levchenko,  Ching Yeh Lin,  D. Liotard,  R. C. Lochan,  I. Lotan,  
 P. E. Maslen,  N. Nair,  D. P. O'Neill,  D. Neuhauser,  E. Neuscamman,  
 C. M. Oana,  R. Olson,  B. Peters,  R. Peverati,  P. A. Pieniazek,  
 Y. M. Rhee,  J. Ritchie,  M. A. Rohrdanz,  E. Rosta,  N. J. Russ,  
 H. F. Schaefer III,  N. E. Schultz,  N. Shenvi,  A. C. Simmonett,  A. Sodt,  
 D. Stuck,  K. S. Thanthiriwatte,  V. Vanovschi,  Tao Wang,  A. Warshel,  
 C. F. Williams,  Q. Wu,  X. Xu,  W. Zhang

 Please cite Q-Chem as follows:
 Y. Shao et al., Mol. Phys. 113, 184-215 (2015)
 DOI: 10.1080/00268976.2014.952696

 Q-Chem 5.2.1 for Intel X86 EM64T Linux

 Parts of Q-Chem use Armadillo 8.300.2 (Tropical Shenanigans).
 http://arma.sourceforge.net/

 Q-Chem begins on Tue Feb  8 16:17:16 2022  

Host: 
0

     Scratch files written to /gpfs/fs0/scratch/a/aspuru/rhickman/descriptor_computation/qchem353703//
 Jul1719 |scratch|qcdevops|jenkins|workspace|build_RNUM -1
Processing $rem in /scinet/niagara/software/commercial/qc52/config/preferences:
	 MEM_TOTAL  4000 
NAlpha2: 166
NElect   166
Mult     1

Checking the input file for inconsistencies... 	...done.

--------------------------------------------------------------
User input:
--------------------------------------------------------------
$molecule
0 1
F         6.72713302260000   -0.20388910550000   -0.13044066300000
C         5.43919016390000   -0.01262705000000    0.14899932230000
F         5.34303211250000    0.68297303610000    1.27566752930000
C         4.45818108980000   -0.46899779070000   -0.61669411380000
C         3.02451194210000   -0.33004752490000   -0.42933949400000
C         2.44741550960000    0.33116940470000    0.65783520510000
C         1.07644556970000    0.42780453060000    0.77504233640000
C         0.24165464160000   -0.12925956480000   -0.19090626090000
N        -1.15770222960000   -0.02487629660000   -0.07083707490000
C        -1.78095432560000    1.22654772090000   -0.07733056660000
C        -3.17500625490000    1.29979944470000    0.04480055600000
O        -3.96546100180000    0.18296892860000    0.15359038340000
C        -3.33963864320000   -1.03838617990000    0.15287799880000
C        -1.94820122100000   -1.17104013580000    0.05258552390000
C        -1.40141818840000   -2.44574854020000    0.12948151110000
C        -2.21487739990000   -3.56186763680000    0.25443507080000
C        -3.58630913050000   -3.42266351280000    0.31636071740000
C        -4.14630582450000   -2.15439022920000    0.27489193390000
C        -3.81883210170000    2.52313303220000    0.04148116040000
C        -3.09297651680000    3.69658600950000   -0.09953824110000
C        -1.72345469000000    3.63331064200000   -0.25581405280000
C        -1.07257240700000    2.40884190650000   -0.25078179490000
C         0.80775275680000   -0.79084408020000   -1.27825305750000
C         2.17788972560000   -0.88935415700000   -1.39099133550000
H         4.77879847880000   -1.01255357200000   -1.49384449720000
H         3.06767547140000    0.76697317570000    1.42336050900000
H         0.64006302610000    0.93271016520000    1.62401682110000
H        -0.33007659750000   -2.56861448270000    0.10090420890000
H        -1.76200129810000   -4.53998621720000    0.30663308820000
H        -4.22387152890000   -4.28761142660000    0.40858479200000
H        -5.21245931050000   -2.00801326890000    0.34205478100000
H        -4.89206287460000    2.53472004760000    0.14480044840000
H        -3.60360590220000    4.64651452660000   -0.09785843920000
H        -1.14611208120000    4.53547455510000   -0.38711599030000
H        -0.00371700020000    2.37423763640000   -0.39185847960000
H         0.16523023740000   -1.21891258400000   -2.03332443940000
H         2.60520861450000   -1.39993656430000   -2.24141979420000
$end

$rem
BASIS = 6-31G*
GUI = 2
METHOD = B3LYP
PRINT_ORBITALS false
MOLDEN_FORMAT false
--------------------------------------------------------------
 ----------------------------------------------------------------
             Standard Nuclear Orientation (Angstroms)
    I     Atom           X                Y                Z
 ----------------------------------------------------------------
    1      F      -6.7935344855    -0.1858894192     0.0869801826
    2      C      -5.5038896087     0.0033887624    -0.1858834248
    3      F      -5.4009449695     0.7008055585    -1.3108275626
    4      C      -4.5274755680    -0.4562317683     0.5837295191
    5      C      -3.0926524622    -0.3197096517     0.4035614814
    6      C      -2.5090330717     0.3423276562    -0.6796245399
    7      C      -1.1373290397     0.4365307360    -0.7900250098
    8      C      -0.3082936633    -0.1238574590     0.1789530128
    9      N       1.0918256251    -0.0219558397     0.0658417083
   10      C       1.7174370321     1.2282520642     0.0775880521
   11      C       3.1122017481     1.2990361304    -0.0376664960
   12      O       3.9010312848     0.1808807230    -0.1446280867
   13      C       3.2728724130    -1.0392662443    -0.1491273135
   14      C       1.8807140074    -1.1694185237    -0.0558047003
   15      C       1.3318668120    -2.4429327567    -0.1376243096
   16      C       2.1437801156    -3.5603922947    -0.2606368575
   17      C       3.5157599213    -3.4237195951    -0.3156782203
   18      C       4.0779797681    -2.1566028847    -0.2692329278
   19      C       3.7583481389     2.5211197264    -0.0290449097
   20      C       3.0340694170     3.6957156605     0.1105595905
   21      C       1.6636882998     3.6347999345     0.2600948821
   22      C       1.0104916843     2.4115978308     0.2497242897
   23      C      -0.8809164236    -0.7862838382     1.2623636781
   24      C      -2.2517694562    -0.8823555168     1.3682960309
   25      H      -4.8533770678    -1.0007286386     1.4583451851
   26      H      -3.1247431347     0.7806862568    -1.4473609487
   27      H      -0.6958744557     0.9421045282    -1.6359742346
   28      H       0.2601658436    -2.5637859207    -0.1144498951
   29      H       1.6892876267    -4.5375425056    -0.3167741598
   30      H       4.1521018882    -4.2897282948    -0.4063634929
   31      H       5.1447245728    -2.0121601508    -0.3309754288
   32      H       4.8320867557     2.5308236696    -0.1271501706
   33      H       3.5465211890     4.6446605292     0.1130487705
   34      H       1.0874474761     4.5378390167     0.3902153724
   35      H      -0.0590985409     2.3788011177     0.3855664513
   36      H      -0.2428786664    -1.2169314745     2.0197678354
   37      H      -2.6841784305    -1.3936261035     2.2157329058
 ----------------------------------------------------------------
 Molecular Point Group                 C1    NOp =  1
 Largest Abelian Subgroup              C1    NOp =  1
 Nuclear Repulsion Energy =        1889.40571800 hartrees
 There are       83 alpha and       83 beta electrons
 Requested basis set is 6-31G(d)
 There are 122 shells and 386 basis functions

 Total QAlloc Memory Limit   4000 MB
 Mega-Array Size       188 MB
 MEM_STATIC part       192 MB
 A cutoff of  1.0D-08 yielded   3642 shell pairs
 There are     38998 function pairs
 Smallest overlap matrix eigenvalue = 3.26E-04

 Scale SEOQF with 1.000000e-02/1.000000e-01/1.000000e-01

 Standard Electronic Orientation quadrupole field applied
 Nucleus-field energy     =     0.0000000430 hartrees
 Guess from superposition of atomic densities
 Warning:  Energy on first SCF cycle will be non-variational
 SAD guess density has 166.000000 electrons

 -----------------------------------------------------------------------
  General SCF calculation program by
  Eric Jon Sundstrom, Paul Horn, Yuezhi Mao, Dmitri Zuev, Alec White,
  David Stuck, Shaama M.S., Shane Yost, Joonho Lee, David Small,
  Daniel Levine, Susi Lehtola, Hugh Burton, Evgeny Epifanovsky,
  Bang C. Huynh
 -----------------------------------------------------------------------
 Exchange:     0.2000 Hartree-Fock + 0.0800 Slater + 0.7200 B88
 Correlation:  0.1900 VWN1RPA + 0.8100 LYP
 Using SG-1 standard quadrature grid
 A restricted SCF calculation will be
 performed using DIIS
 SCF converges when DIIS error is below 1.0e-05
 ---------------------------------------
  Cycle       Energy         DIIS error
 ---------------------------------------
    1   -1105.9184962322      4.23e-02  
    2   -1099.2164187364      4.33e-03  
    3   -1098.8250949451      6.26e-03  
    4   -1099.5203898131      1.64e-03  
    5   -1099.5711028111      5.37e-04  
    6   -1099.5759042956      2.54e-04  
    7   -1099.5771197578      6.15e-05  
    8   -1099.5771752468      2.80e-05  
    9   -1099.5771899374      5.45e-06  Convergence criterion met
 ---------------------------------------
 SCF time:   CPU 112.92s  wall 114.00s 
 SCF   energy in the final basis set =    -1099.5771899374
 Total energy in the final basis set =    -1099.5771899374
 
 --------------------------------------------------------------
 
                    Orbital Energies (a.u.)
 --------------------------------------------------------------
 
 Alpha MOs
 -- Occupied --
-24.7509 -24.7401 -19.1924 -14.3754 -10.3636 -10.2472 -10.2471 -10.2344
-10.2339 -10.2339 -10.2156 -10.2099 -10.2015 -10.1997 -10.1993 -10.1985
-10.1837 -10.1836 -10.1835 -10.1834 -10.1817 -10.1815 -10.1803 -10.1802
 -1.2918  -1.2307  -1.0907  -0.9825  -0.8766  -0.8684  -0.8402  -0.8136
 -0.7706  -0.7637  -0.7587  -0.7572  -0.7332  -0.7070  -0.6605  -0.6491
 -0.6342  -0.6294  -0.6012  -0.6001  -0.5791  -0.5724  -0.5640  -0.5460
 -0.5335  -0.5252  -0.4988  -0.4949  -0.4835  -0.4693  -0.4689  -0.4648
 -0.4544  -0.4516  -0.4469  -0.4379  -0.4352  -0.4331  -0.4318  -0.4307
 -0.4178  -0.3895  -0.3880  -0.3842  -0.3781  -0.3757  -0.3719  -0.3573
 -0.3567  -0.3531  -0.3328  -0.3226  -0.3045  -0.2685  -0.2555  -0.2549
 -0.2342  -0.2240  -0.1705
 -- Virtual --
 -0.0402  -0.0152  -0.0063   0.0077   0.0087   0.0430   0.0569   0.0781
  0.0899   0.1069   0.1121   0.1351   0.1469   0.1487   0.1514   0.1531
  0.1639   0.1648   0.1737   0.1772   0.1815   0.1858   0.1905   0.1921
  0.1977   0.2038   0.2385   0.2483   0.2593   0.2688   0.2707   0.2936
  0.3061   0.3150   0.3194   0.3287   0.3353   0.3380   0.3607   0.3691
  0.4026   0.4054   0.4107   0.4221   0.4704   0.4728   0.4887   0.4921
  0.4999   0.5142   0.5196   0.5229   0.5273   0.5345   0.5364   0.5496
  0.5534   0.5584   0.5652   0.5658   0.5711   0.5742   0.5786   0.5850
  0.5876   0.5911   0.5941   0.5986   0.6051   0.6089   0.6152   0.6166
  0.6176   0.6186   0.6197   0.6223   0.6271   0.6351   0.6468   0.6495
  0.6551   0.6665   0.6813   0.6953   0.7134   0.7295   0.7483   0.7577
  0.7734   0.7850   0.8115   0.8149   0.8238   0.8287   0.8364   0.8406
  0.8449   0.8458   0.8527   0.8589   0.8635   0.8724   0.8784   0.8952
  0.8968   0.9047   0.9219   0.9263   0.9342   0.9388   0.9452   0.9565
  0.9644   0.9867   0.9997   1.0130   1.0232   1.0286   1.0463   1.0576
  1.0694   1.0834   1.0922   1.1183   1.1241   1.1272   1.1405   1.1532
  1.1604   1.1659   1.1789   1.1892   1.1909   1.2023   1.2130   1.2213
  1.2316   1.2376   1.2502   1.2698   1.2752   1.2857   1.3089   1.3264
  1.3370   1.3526   1.3738   1.3859   1.3978   1.3999   1.4196   1.4284
  1.4427   1.4460   1.4496   1.4623   1.4653   1.4686   1.4771   1.4849
  1.4893   1.4983   1.4994   1.5053   1.5103   1.5110   1.5198   1.5522
  1.6226   1.6450   1.6716   1.7058   1.7248   1.7252   1.7478   1.7738
  1.7765   1.7965   1.8104   1.8179   1.8255   1.8308   1.8345   1.8370
  1.8501   1.8511   1.8602   1.8693   1.8895   1.8929   1.9024   1.9143
  1.9189   1.9247   1.9430   1.9553   1.9597   1.9664   1.9767   1.9783
  1.9846   1.9959   2.0107   2.0203   2.0223   2.0285   2.0655   2.0691
  2.0799   2.1031   2.1192   2.1217   2.1393   2.1504   2.1522   2.1598
  2.1847   2.1875   2.2275   2.2291   2.2378   2.2401   2.2544   2.2710
  2.2891   2.2905   2.3013   2.3074   2.3144   2.3152   2.3204   2.3477
  2.3551   2.3702   2.4095   2.4682   2.4742   2.4998   2.5180   2.5282
  2.5300   2.5535   2.5900   2.6042   2.6194   2.6315   2.6363   2.6420
  2.6542   2.6655   2.6779   2.6820   2.7008   2.7211   2.7427   2.7476
  2.7503   2.7537   2.7633   2.7926   2.8048   2.8191   2.8558   2.8809
  2.8982   2.9209   2.9541   3.0016   3.0037   3.0440   3.0625   3.0896
  3.1432   3.1885   3.3064   3.3949   3.4489   3.5480   3.5504   4.0697
  4.0990   4.1073   4.1114   4.1135   4.1339   4.1487   4.1546   4.1775
  4.2081   4.2679   4.3047   4.3441   4.3535   4.4170   4.4321   4.4491
  4.5109   4.7001   4.7506   4.7803   4.8167   5.0555   5.2854
 --------------------------------------------------------------
 
          Ground-State Mulliken Net Atomic Charges

     Atom                 Charge (a.u.)
  ----------------------------------------
      1 F                    -0.246025
      2 C                     0.546653
      3 F                    -0.233285
      4 C                    -0.301101
      5 C                     0.204826
      6 C                    -0.207393
      7 C                    -0.145540
      8 C                     0.236695
      9 N                    -0.720199
     10 C                     0.342234
     11 C                     0.319933
     12 O                    -0.576124
     13 C                     0.320205
     14 C                     0.341470
     15 C                    -0.206281
     16 C                    -0.136054
     17 C                    -0.132231
     18 C                    -0.207850
     19 C                    -0.207827
     20 C                    -0.132161
     21 C                    -0.136265
     22 C                    -0.206145
     23 C                    -0.145216
     24 C                    -0.207260
     25 H                     0.162092
     26 H                     0.145833
     27 H                     0.153129
     28 H                     0.149934
     29 H                     0.125785
     30 H                     0.126219
     31 H                     0.140489
     32 H                     0.140463
     33 H                     0.126273
     34 H                     0.126158
     35 H                     0.150358
     36 H                     0.152626
     37 H                     0.135581
  ----------------------------------------
  Sum of atomic charges =     0.000000

 -----------------------------------------------------------------
                    Cartesian Multipole Moments
 -----------------------------------------------------------------
    Charge (ESU x 10^10)
                 0.0000
    Dipole Moment (Debye)
         X      -1.1810      Y      -0.4454      Z       0.6836
       Tot       1.4354
    Quadrupole Moments (Debye-Ang)
        XX    -135.9677     XY       1.3967     YY    -125.8820
        XZ      -3.3438     YZ      -2.5106     ZZ    -134.2206
    Octopole Moments (Debye-Ang^2)
       XXX     -18.0880    XXY      -7.4299    XYY      -8.6826
       YYY       8.3086    XXZ       6.7426    XYZ       7.6265
       YYZ      -2.1661    XZZ     -46.6501    YZZ      -3.0935
       ZZZ      -6.1066
    Hexadecapole Moments (Debye-Ang^3)
      XXXX   -8602.0225   XXXY       3.1712   XXYY   -1795.4376
      XYYY     -18.6324   YYYY   -2872.2127   XXXZ     -37.7287
      XXYZ     -12.8393   XYYZ      -0.0133   YYYZ      16.7950
      XXZZ   -1484.3420   XYZZ       8.1021   YYZZ    -630.8780
      XZZZ      43.6842   YZZZ     -35.4218   ZZZZ    -410.4145
 -----------------------------------------------------------------
Archival summary:
1\1\nia2015.scinet.local\SP\ProcedureUnspecified\6-31G*\2112013\rhickman\TueFeb816:19:102022TueFeb816:19:102022\0\\#,ProcedureUnspecified,6-31G*,\\0,1\N\C,1,1.39779\C,2,1.38916,1,122.325\H,3,1.07874,2,119.601,1,0.434197,0\C,3,1.38674,2,120.84,1,179.86,0\H,5,1.07914,3,119.189,2,179.678,0\C,5,1.37987,3,120.388,2,-0.567053,0\H,7,1.07848,5,120.696,3,179.693,0\C,7,1.38702,5,119.484,3,-1.05897,0\H,9,1.07825,7,121.432,5,-178.688,0\C,9,1.38241,7,120.346,5,0.937836,0\O,11,1.37236,9,116.892,7,-178.37,0\C,12,1.37258,11,117.483,9,179.447,0\C,13,1.38241,12,116.874,11,179.75,0\H,14,1.07825,13,118.218,12,1.28948,0\C,14,1.38699,13,120.345,12,-178.343,0\H,16,1.07848,14,119.819,13,-179.808,0\C,16,1.37986,14,119.481,13,0.916818,0\H,18,1.0791,16,120.428,14,178.739,0\C,18,1.38672,16,120.393,14,-1.03226,0\H,20,1.07868,18,119.534,16,178.903,0\C,20,1.38914,18,120.838,16,-0.568635,0\C,1,1.40837,2,120.575,3,3.25011,0\C,23,1.39293,1,120.445,2,-117.949,0\H,24,1.07987,23,119.34,1,0.629804,0\C,24,1.37936,23,120.578,1,-179.777,0\H,26,1.07735,24,118.915,23,-179.661,0\C,23,1.39301,1,120.367,2,62.0795,0\H,28,1.07991,23,119.488,1,0.370426,0\C,28,1.37829,23,120.117,1,179.966,0\H,30,1.08006,28,119.439,23,-179.66,0\C,26,1.39721,24,120.65,23,-0.177212,0\C,32,1.45252,26,123.594,24,179.966,0\H,33,1.08057,32,116.467,26,179.35,0\C,33,1.3255,32,128.54,26,-0.790833,0\F,35,1.32759,33,128.1,32,0.0474751,0\F,35,1.33171,33,123.033,32,-179.907,0\\\@

 Total job time:  113.98s(wall), 113.31s(cpu) 
 Tue Feb  8 16:19:10 2022

        *************************************************************
        *                                                           *
        *  Thank you very much for using Q-Chem.  Have a nice day.  *
        *                                                           *
        *************************************************************


