56
 energy: -64.419384968570 gnorm: 0.000028820404 xtb: 6.4.1 (23d549d)
C         2.56833952700000   -2.54156567530000   -0.85999591350000
C         2.31455165040000   -1.33608497400000   -1.34940323090000
C         1.32463466740000   -0.40930384890000   -0.79825614840000
C         0.11434502660000   -0.91556398610000   -0.32622623430000
C        -0.88675900700000   -0.11238480230000    0.18934547370000
C        -2.18285298660000   -0.73430439990000    0.62472878120000
C        -3.29353337880000   -0.47062573340000   -0.39788792120000
C        -4.62131330910000   -1.08848983620000    0.03146888000000
C        -5.72630155770000   -0.81256341590000   -0.98566811590000
C        -7.04845820270000   -1.50271342940000   -0.64849634070000
C        -7.71325841820000   -0.94813239170000    0.60613325240000
C        -0.68380912630000    1.27509641210000    0.22162224460000
C        -1.70239237730000    2.18626236210000    0.74026325020000
C        -1.91908023700000    3.41459656280000    0.28934287950000
C         0.52766384140000    1.77925350280000   -0.24154802390000
C         1.53622963330000    0.97402804930000   -0.74622479200000
C         2.83546520180000    1.62461843700000   -1.13295252670000
C         3.67942892460000    1.95553049340000    0.10749477450000
C         4.14322803300000    0.72333150080000    0.88505924440000
C         5.28087016790000   -0.02452219590000    0.19261190650000
C         5.63208410340000   -1.34625507940000    0.87501426710000
C         6.20774137290000   -1.16990683610000    2.27518378230000
H         3.29344384710000   -3.19678159280000   -1.31217483870000
H         2.07383149600000   -2.91433107590000    0.02205178680000
H         2.85543984870000   -0.99562527050000   -2.22317395510000
H        -0.05246122420000   -1.98196125120000   -0.38552189350000
H        -2.48878625080000   -0.33946187520000    1.59664448350000
H        -2.04867082750000   -1.81276204890000    0.73411850200000
H        -2.99122580290000   -0.88374828560000   -1.36334335410000
H        -3.41670358580000    0.60729889510000   -0.52508388830000
H        -4.90429404740000   -0.68009114270000    1.00331309710000
H        -4.49867062110000   -2.16850055730000    0.14629942910000
H        -5.39162066950000   -1.15864033030000   -1.96698481800000
H        -5.89018880900000    0.26543501200000   -1.05604183310000
H        -6.87379749070000   -2.57388364750000   -0.52309040250000
H        -7.73083151270000   -1.37685294670000   -1.49268760710000
H        -7.10865892060000   -1.14312882730000    1.48792751180000
H        -8.68588880830000   -1.41212141340000    0.75437012490000
H        -7.85663244390000    0.12664608110000    0.51652180660000
H        -2.31535094320000    1.80584549370000    1.54721379360000
H        -1.36243767830000    3.82872866070000   -0.53481388750000
H        -2.67827916510000    4.04838579220000    0.71559864910000
H         0.69700552810000    2.84536157320000   -0.18697489660000
H         2.62131634990000    2.55923462250000   -1.65828698800000
H         3.41089108690000    0.99041345990000   -1.80465131230000
H         3.08038640400000    2.58445343280000    0.77034027150000
H         4.55280788570000    2.53486874370000   -0.20211667900000
H         3.29709146210000    0.04796394070000    1.02685029490000
H         4.47894034740000    1.04762495520000    1.87175891970000
H         6.16725830590000    0.61443712200000    0.16198679200000
H         4.99388054100000   -0.24303485100000   -0.83706394890000
H         6.36444540120000   -1.87233220130000    0.25726326740000
H         4.73479514140000   -1.96745433270000    0.92426152020000
H         7.07388082710000   -0.51167410620000    2.25058376250000
H         6.51974591190000   -2.13073117810000    2.67883884560000
H         5.46961756390000   -0.74392999150000    2.94947296800000
