
Running Job 1 of 1 fragments/C095/conf-6/spe_input.inp
qchem fragments/C095/conf-6/spe_input.inp_332737.0 /gpfs/fs0/scratch/a/aspuru/rhickman/descriptor_computation/qchem332737/ 0
/scinet/niagara/software/commercial/qc52/exe/qcprog.exe_s fragments/C095/conf-6/spe_input.inp_332737.0 /gpfs/fs0/scratch/a/aspuru/rhickman/descriptor_computation/qchem332737/
                  Welcome to Q-Chem
     A Quantum Leap Into The Future Of Chemistry


 Q-Chem 5.2, Q-Chem, Inc., Pleasanton, CA (2019)

 License issued to: SRG Alan Aspuru-Guzik, University of Toronto

 Yihan Shao,  Zhengting Gan,  E. Epifanovsky,  A. T. B. Gilbert,  M. Wormit,  
 J. Kussmann,  A. W. Lange,  A. Behn,  Jia Deng,  Xintian Feng,  D. Ghosh,  
 M. Goldey,  P. R. Horn,  L. D. Jacobson,  I. Kaliman,  T. Kus,  A. Landau,  
 Jie Liu,  E. I. Proynov,  R. M. Richard,  R. P. Steele,  E. J. Sundstrom,  
 H. L. Woodcock III,  P. M. Zimmerman,  D. Zuev,  B. Albrecht,  E. Alguire,  
 S. A. Baeppler,  D. Barton,  Z. Benda,  Y. A. Bernard,  E. J. Berquist,  
 K. B. Bravaya,  H. Burton,  D. Casanova,  Chun-Min Chang,  Yunqing Chen,  
 A. Chien,  K. D. Closser,  M. P. Coons,  S. Coriani,  S. Dasgupta,  
 A. L. Dempwolff,  M. Diedenhofen,  Hainam Do,  R. G. Edgar,  Po-Tung Fang,  
 S. Faraji,  S. Fatehi,  Qingguo Feng,  K. D. Fenk,  J. Fosso-Tande,  
 J. Gayvert,  Qinghui Ge,  A. Ghysels,  G. Gidofalvi,  J. Gomes,  
 J. Gonthier,  A. Gunina,  D. Hait,  M. W. D. Hanson-Heine,  
 P. H. P. Harbach,  A. W. Hauser,  M. F. Herbst,  J. E. Herr,  
 E. G. Hohenstein,  Z. C. Holden,  Kerwin Hui,  B. C. Huynh,  T.-C. Jagau,  
 Hyunjun Ji,  B. Kaduk,  K. Khistyaev,  Jaehoon Kim,  P. Klunzinger,  K. Koh,  
 D. Kosenkov,  L. Koulias,  T. Kowalczyk,  C. M. Krauter,  A. Kunitsa,  
 Ka Un Lao,  A. Laurent,  K. V. Lawler,  Joonho Lee,  D. Lefrancois,  
 S. Lehtola,  D. S. Levine,  Yi-Pei Li,  You-Sheng Lin,  Fenglai Liu,  
 E. Livshits,  A. Luenser,  P. Manohar,  E. Mansoor,  S. F. Manzer,  
 Shan-Ping Mao,  Yuezhi Mao,  N. Mardirossian,  A. V. Marenich,  
 T. Markovich,  L. A. Martinez-Martinez,  S. A. Maurer,  N. J. Mayhall,  
 S. C. McKenzie,  J.-M. Mewes,  P. Morgante,  A. F. Morrison,  
 J. W. Mullinax,  K. Nanda,  T. S. Nguyen-Beck,  R. Olivares-Amaya,  
 J. A. Parkhill,  Zheng Pei,  T. M. Perrine,  F. Plasser,  P. Pokhilko,  
 S. Prager,  A. Prociuk,  E. Ramos,  D. R. Rehn,  F. Rob,  M. Scheurer,  
 M. Schneider,  N. Sergueev,  S. M. Sharada,  S. Sharma,  D. W. Small,  
 T. Stauch,  T. Stein,  Yu-Chuan Su,  A. J. W. Thom,  A. Tkatchenko,  
 T. Tsuchimochi,  N. M. Tubman,  L. Vogt,  M. L. Vidal,  O. Vydrov,  
 M. A. Watson,  J. Wenzel,  M. de Wergifosse,  T. A. Wesolowski,  A. White,  
 J. Witte,  A. Yamada,  Jun Yang,  K. Yao,  S. Yeganeh,  S. R. Yost,  
 Zhi-Qiang You,  A. Zech,  Igor Ying Zhang,  Xing Zhang,  Yan Zhao,  
 Ying Zhu,  B. R. Brooks,  G. K. L. Chan,  C. J. Cramer,  M. S. Gordon,  
 W. J. Hehre,  A. Klamt,  M. W. Schmidt,  C. D. Sherrill,  D. G. Truhlar,  
 A. Aspuru-Guzik,  R. Baer,  A. T. Bell,  N. A. Besley,  Jeng-Da Chai,  
 A. E. DePrince, III,  R. A. DiStasio Jr.,  A. Dreuw,  B. D. Dunietz,  
 T. R. Furlani,  Chao-Ping Hsu,  Yousung Jung,  Jing Kong,  D. S. Lambrecht,  
 WanZhen Liang,  C. Ochsenfeld,  V. A. Rassolov,  L. V. Slipchenko,  
 J. E. Subotnik,  T. Van Voorhis,  J. M. Herbert,  A. I. Krylov,  
 P. M. W. Gill,  M. Head-Gordon

 Contributors to earlier versions of Q-Chem not listed above: 
 R. D. Adamson,  B. Austin,  J. Baker,  G. J. O. Beran,  K. Brandhorst,  
 S. T. Brown,  E. F. C. Byrd,  A. K. Chakraborty,  C.-L. Cheng,  
 Siu Hung Chien,  D. M. Chipman,  D. L. Crittenden,  H. Dachsel,  
 R. J. Doerksen,  A. D. Dutoi,  L. Fusti-Molnar,  W. A. Goddard III,  
 A. Golubeva-Zadorozhnaya,  S. R. Gwaltney,  G. Hawkins,  A. Heyden,  
 S. Hirata,  G. Kedziora,  F. J. Keil,  C. Kelley,  Jihan Kim,  R. A. King,  
 R. Z. Khaliullin,  P. P. Korambath,  W. Kurlancheek,  A. M. Lee,  M. S. Lee,  
 S. V. Levchenko,  Ching Yeh Lin,  D. Liotard,  R. C. Lochan,  I. Lotan,  
 P. E. Maslen,  N. Nair,  D. P. O'Neill,  D. Neuhauser,  E. Neuscamman,  
 C. M. Oana,  R. Olson,  B. Peters,  R. Peverati,  P. A. Pieniazek,  
 Y. M. Rhee,  J. Ritchie,  M. A. Rohrdanz,  E. Rosta,  N. J. Russ,  
 H. F. Schaefer III,  N. E. Schultz,  N. Shenvi,  A. C. Simmonett,  A. Sodt,  
 D. Stuck,  K. S. Thanthiriwatte,  V. Vanovschi,  Tao Wang,  A. Warshel,  
 C. F. Williams,  Q. Wu,  X. Xu,  W. Zhang

 Please cite Q-Chem as follows:
 Y. Shao et al., Mol. Phys. 113, 184-215 (2015)
 DOI: 10.1080/00268976.2014.952696

 Q-Chem 5.2.1 for Intel X86 EM64T Linux

 Parts of Q-Chem use Armadillo 8.300.2 (Tropical Shenanigans).
 http://arma.sourceforge.net/

 Q-Chem begins on Tue Feb  8 15:07:45 2022  

Host: 
0

     Scratch files written to /gpfs/fs0/scratch/a/aspuru/rhickman/descriptor_computation/qchem332737//
 Jul1719 |scratch|qcdevops|jenkins|workspace|build_RNUM -1
Processing $rem in /scinet/niagara/software/commercial/qc52/config/preferences:
	 MEM_TOTAL  4000 
NAlpha2: 152
NElect   152
Mult     1

Checking the input file for inconsistencies... 	...done.

--------------------------------------------------------------
User input:
--------------------------------------------------------------
$molecule
0 1
C         4.77093654620000    0.00095939980000    1.50373167090000
C         3.58712885190000    0.59943906710000    1.50526500580000
C         2.46378200040000    0.27135787350000    0.64694559510000
C         1.15839475980000    0.39720822400000    1.04525309450000
N         0.30957194990000   -0.09014506840000    0.08786031640000
Si       -1.46120300350000   -0.00929572420000    0.10282878720000
C        -1.96177160090000    0.43642908600000    1.90510819670000
C        -3.44981749800000    0.76153532400000    2.01986619960000
C        -1.60678128810000   -0.66539237680000    2.90384654310000
C        -1.93300880540000    1.42460478500000   -1.09627669880000
C        -1.41317144970000    2.76678154880000   -0.57749853970000
C        -1.40860579100000    1.19980800570000   -2.51435079780000
C        -2.26918456320000   -1.69822310990000   -0.36427393880000
C        -3.64019083930000   -1.49952586990000   -1.01375882270000
C        -1.41602443690000   -2.60560191270000   -1.24828656300000
C         1.09772119330000   -0.51499257540000   -0.94691373530000
C         2.42359863120000   -0.31057992150000   -0.66530986530000
C         3.48306826040000   -0.56731912350000   -1.62316661090000
C         4.62336446220000    0.10293468460000   -1.72442864290000
H         5.54336195770000    0.27924424310000    2.20084758600000
H         5.00886327570000   -0.78702675150000    0.81028418560000
H         3.37473941300000    1.36392518110000    2.24458044670000
H         0.78296905720000    0.78963489140000    1.96805869550000
H        -1.41451979970000    1.33728293360000    2.19880507580000
H        -4.05130926190000   -0.11605026630000    1.79599682540000
H        -3.73337050920000    1.55648879300000    1.33514310850000
H        -3.69178922250000    1.08216139580000    3.03234342030000
H        -2.21409857160000   -1.55034479550000    2.72920600860000
H        -1.79461838140000   -0.32889066500000    3.92268993670000
H        -0.56119949910000   -0.95135535340000    2.82508057640000
H        -3.02393978870000    1.48954404030000   -1.15533509470000
H        -0.33025905710000    2.74082239320000   -0.47619741450000
H        -1.84260534630000    3.00739266420000    0.39138602990000
H        -1.66953494970000    3.56643085220000   -1.27081931430000
H        -0.32128749940000    1.19645221510000   -2.51931621750000
H        -1.74650141450000    1.99754785000000   -3.17449958070000
H        -1.75849718680000    0.25441673660000   -2.92138994100000
H        -2.43390875560000   -2.24280178670000    0.57162692520000
H        -3.54309417180000   -1.01180032460000   -1.98020670170000
H        -4.28804965080000   -0.88945678690000   -0.39058131290000
H        -4.12619142990000   -2.46163458060000   -1.17018293360000
H        -1.26227256930000   -2.16073902770000   -2.22867271130000
H        -1.91597838420000   -3.56278558360000   -1.39317251120000
H        -0.44730632370000   -2.79383315560000   -0.79351338750000
H         0.66541275910000   -0.91198034900000   -1.84182057820000
H         3.25180489770000   -1.34220124530000   -2.34589130390000
H         4.87482153570000    0.90279312450000   -1.04959564280000
H         5.34488482750000   -0.12628056100000   -2.49053564790000
$end

$rem
BASIS = 6-31G*
GUI = 2
METHOD = B3LYP
PRINT_ORBITALS false
MOLDEN_FORMAT false
--------------------------------------------------------------
 ----------------------------------------------------------------
             Standard Nuclear Orientation (Angstroms)
    I     Atom           X                Y                Z
 ----------------------------------------------------------------
    1      C      -4.7560355161    -1.6540554287     0.4681990222
    2      C      -3.5899276118    -1.7312015434    -0.1593531691
    3      C      -2.4961084934    -0.7839541730    -0.0473719904
    4      C      -1.1786706022    -1.1510059147    -0.1376684164
    5      N      -0.3589673524    -0.0851167179     0.1203647755
    6      Si      1.4079643068    -0.0506771203    -0.0180947234
    7      C       1.9734233224    -1.8859478733    -0.1155008933
    8      C       3.4556660450    -2.0083028316    -0.4635380072
    9      C       1.6917933029    -2.6575270249     1.1740172677
   10      C       1.7886218700     0.8552545229    -1.6766823843
   11      C       1.2554019663     0.0606897166    -2.8704760947
   12      C       1.2099160307     2.2693947601    -1.7187918236
   13      C       2.2405849059     0.7729779876     1.5154730361
   14      C       3.5764505907     1.4198906970     1.1440753578
   15      C       1.3750634927     1.7880189949     2.2592883689
   16      C      -1.1791424771     0.9838174391     0.3593721084
   17      C      -2.4967159319     0.6185056134     0.2614756618
   18      C      -3.5891060373     1.5686343799     0.3605697736
   19      C      -4.7504636839     1.4922713890    -0.2759730015
   20      H      -5.5049808922    -2.4205995989     0.3607516950
   21      H      -5.0021510339    -0.8267593073     1.1111679154
   22      H      -3.3667033142    -2.5996727492    -0.7693238989
   23      H      -0.7746274595    -2.1190322993    -0.3525809156
   24      H       1.4150989281    -2.3731835536    -0.9205818258
   25      H       4.0705366468    -1.5920849477     0.3306679630
   26      H       3.6877991904    -1.4857191391    -1.3877779797
   27      H       3.7322378336    -3.0547503226    -0.5856740379
   28      H       2.3148020532    -2.2878347747     1.9849809658
   29      H       1.9141442708    -3.7153649877     1.0394924456
   30      H       0.6519298051    -2.5619233268     1.4752879399
   31      H       2.8738337944     0.9403215479    -1.7903225694
   32      H       0.1789605380    -0.0732147343    -2.7869387067
   33      H       1.7194853995    -0.9202247859    -2.9294489320
   34      H       1.4598831688     0.5897560203    -3.8000626873
   35      H       0.1238842767     2.2348873835    -1.6782794271
   36      H       1.4973042439     2.7693597344    -2.6428057664
   37      H       1.5674618630     2.8692278699    -0.8855867332
   38      H       2.4601762137    -0.0289497504     2.2284260377
   39      H       3.4246253411     2.2655491046     0.4783904289
   40      H       4.2337654523     0.7119488213     0.6470733381
   41      H       4.0811770738     1.7826490378     2.0384890268
   42      H       1.1672186094     2.6537799717     1.6348221500
   43      H       1.8940886456     2.1390110525     3.1506715264
   44      H       0.4322940504     1.3445080720     2.5677494924
   45      H      -0.7751731214     1.9551756401     0.5558921765
   46      H      -3.3682560550     2.4392667931     0.9684188617
   47      H      -4.9942213750     0.6628177485    -0.9170600533
   48      H      -5.4978300134     2.2615879232    -0.1777546261
 ----------------------------------------------------------------
 Molecular Point Group                 C1    NOp =  1
 Largest Abelian Subgroup              C1    NOp =  1
 Nuclear Repulsion Energy =        1670.87937292 hartrees
 There are       76 alpha and       76 beta electrons
 Requested basis set is 6-31G(d)
 There are 135 shells and 347 basis functions

 Total QAlloc Memory Limit   4000 MB
 Mega-Array Size       188 MB
 MEM_STATIC part       192 MB
 A cutoff of  1.0D-08 yielded   5263 shell pairs
 There are     37524 function pairs
 Smallest overlap matrix eigenvalue = 5.88E-04

 Scale SEOQF with 1.000000e-02/1.000000e-01/1.000000e-01

 Standard Electronic Orientation quadrupole field applied
 Nucleus-field energy     =     0.0000000043 hartrees
 Guess from superposition of atomic densities
 Warning:  Energy on first SCF cycle will be non-variational
 SAD guess density has 152.000000 electrons

 -----------------------------------------------------------------------
  General SCF calculation program by
  Eric Jon Sundstrom, Paul Horn, Yuezhi Mao, Dmitri Zuev, Alec White,
  David Stuck, Shaama M.S., Shane Yost, Joonho Lee, David Small,
  Daniel Levine, Susi Lehtola, Hugh Burton, Evgeny Epifanovsky,
  Bang C. Huynh
 -----------------------------------------------------------------------
 Exchange:     0.2000 Hartree-Fock + 0.0800 Slater + 0.7200 B88
 Correlation:  0.1900 VWN1RPA + 0.8100 LYP
 Using SG-1 standard quadrature grid
 A restricted SCF calculation will be
 performed using DIIS
 SCF converges when DIIS error is below 1.0e-05
 ---------------------------------------
  Cycle       Energy         DIIS error
 ---------------------------------------
    1   -1013.3554192899      4.25e-02  
    2   -1009.0648772577      5.23e-03  
    3   -1008.9815037096      5.73e-03  
    4   -1009.4989592244      8.86e-04  
    5   -1009.5084500157      4.43e-04  
    6   -1009.5113228881      9.66e-05  
    7   -1009.5114469119      2.93e-05  
    8   -1009.5114576284      9.86e-06  Convergence criterion met
 ---------------------------------------
 SCF time:   CPU 109.81s  wall 110.00s 
 SCF   energy in the final basis set =    -1009.5114576284
 Total energy in the final basis set =    -1009.5114576284
 
 --------------------------------------------------------------
 
                    Orbital Energies (a.u.)
 --------------------------------------------------------------
 
 Alpha MOs
 -- Occupied --
-66.1417 -14.3562 -10.1959 -10.1950 -10.1828 -10.1803 -10.1801 -10.1801
-10.1776 -10.1768 -10.1760 -10.1754 -10.1753 -10.1742 -10.1733 -10.1680
-10.1675 -10.1584 -10.1582  -5.2847  -3.6453  -3.6428  -3.6422  -0.9656
 -0.8058  -0.7941  -0.7845  -0.7812  -0.7658  -0.7207  -0.7081  -0.6905
 -0.6875  -0.6832  -0.6113  -0.6030  -0.5824  -0.5780  -0.5759  -0.5561
 -0.5186  -0.5027  -0.4791  -0.4672  -0.4626  -0.4516  -0.4481  -0.4401
 -0.4356  -0.4313  -0.4152  -0.4121  -0.4098  -0.4046  -0.4002  -0.3968
 -0.3893  -0.3877  -0.3858  -0.3833  -0.3811  -0.3495  -0.3454  -0.3441
 -0.3409  -0.3402  -0.3395  -0.3361  -0.3350  -0.3252  -0.2964  -0.2729
 -0.2721  -0.2677  -0.1969  -0.1967
 -- Virtual --
  0.0003   0.0198   0.0556   0.0593   0.0678   0.0766   0.0850   0.1061
  0.1100   0.1176   0.1237   0.1310   0.1338   0.1352   0.1387   0.1452
  0.1484   0.1506   0.1569   0.1589   0.1675   0.1717   0.1757   0.1789
  0.1801   0.1844   0.1896   0.1996   0.2049   0.2079   0.2147   0.2161
  0.2194   0.2207   0.2276   0.2328   0.2405   0.2484   0.2502   0.2574
  0.2682   0.2709   0.2790   0.2872   0.2993   0.3417   0.3510   0.3669
  0.3696   0.3903   0.4023   0.4193   0.4291   0.4425   0.4558   0.4620
  0.4947   0.4990   0.5118   0.5166   0.5287   0.5416   0.5465   0.5558
  0.5636   0.5705   0.5731   0.5816   0.5998   0.6012   0.6071   0.6108
  0.6230   0.6296   0.6373   0.6467   0.6574   0.6653   0.6734   0.6855
  0.6897   0.6983   0.7015   0.7092   0.7260   0.7349   0.7410   0.7462
  0.7503   0.7608   0.7796   0.7859   0.8006   0.8134   0.8190   0.8227
  0.8286   0.8398   0.8454   0.8588   0.8633   0.8725   0.8736   0.8784
  0.8820   0.8898   0.8900   0.8945   0.8977   0.9010   0.9054   0.9123
  0.9158   0.9231   0.9312   0.9342   0.9393   0.9419   0.9491   0.9558
  0.9626   0.9653   0.9693   0.9797   0.9907   1.0002   1.0046   1.0068
  1.0139   1.0163   1.0252   1.0323   1.0486   1.0519   1.0611   1.0632
  1.0695   1.0746   1.0864   1.0906   1.1118   1.1371   1.1507   1.1596
  1.2027   1.2528   1.2624   1.3052   1.3237   1.3308   1.3424   1.3577
  1.4011   1.4189   1.4313   1.4400   1.4568   1.4635   1.4785   1.4832
  1.4954   1.4989   1.5163   1.5320   1.5352   1.5493   1.5812   1.5932
  1.6074   1.6357   1.6365   1.6626   1.6807   1.7046   1.7137   1.7318
  1.7585   1.7738   1.8058   1.8128   1.8163   1.8688   1.8845   1.9145
  1.9231   1.9286   1.9315   1.9444   1.9536   1.9555   1.9624   2.0122
  2.0166   2.0252   2.0305   2.0414   2.0534   2.0736   2.0803   2.0886
  2.1065   2.1158   2.1187   2.1284   2.1406   2.1657   2.1693   2.2088
  2.2311   2.2361   2.2428   2.2552   2.2569   2.2607   2.2632   2.2756
  2.2795   2.2867   2.2892   2.3087   2.3159   2.3412   2.3578   2.3794
  2.4037   2.4094   2.4164   2.4360   2.4409   2.4623   2.4782   2.4838
  2.4872   2.5686   2.5777   2.5931   2.6062   2.6199   2.6561   2.7107
  2.7137   2.7218   2.7258   2.7763   2.7779   2.7993   2.8428   2.9003
  2.9743   3.0504   3.1526   3.1894   3.2980   4.0866   4.1487   4.1759
  4.1858   4.1937   4.1994   4.2162   4.2397   4.2932   4.2995   4.3117
  4.3308   4.3439   4.4623   4.4995   4.5237   4.5659   4.7317
 --------------------------------------------------------------
 
          Ground-State Mulliken Net Atomic Charges

     Atom                 Charge (a.u.)
  ----------------------------------------
      1 C                    -0.349393
      2 C                    -0.126838
      3 C                     0.050247
      4 C                    -0.052527
      5 N                    -0.516815
      6 Si                    0.904218
      7 C                    -0.299486
      8 C                    -0.463458
      9 C                    -0.462513
     10 C                    -0.273792
     11 C                    -0.463354
     12 C                    -0.471533
     13 C                    -0.289534
     14 C                    -0.465022
     15 C                    -0.464674
     16 C                    -0.044019
     17 C                     0.046034
     18 C                    -0.127322
     19 C                    -0.349294
     20 H                     0.129915
     21 H                     0.151147
     22 H                     0.117104
     23 H                     0.143886
     24 H                     0.146582
     25 H                     0.149141
     26 H                     0.150691
     27 H                     0.145992
     28 H                     0.146652
     29 H                     0.141549
     30 H                     0.161972
     31 H                     0.138255
     32 H                     0.167060
     33 H                     0.145144
     34 H                     0.140748
     35 H                     0.164451
     36 H                     0.142183
     37 H                     0.143652
     38 H                     0.146472
     39 H                     0.152003
     40 H                     0.152050
     41 H                     0.144950
     42 H                     0.144816
     43 H                     0.140967
     44 H                     0.166721
     45 H                     0.146126
     46 H                     0.117605
     47 H                     0.151187
     48 H                     0.130054
  ----------------------------------------
  Sum of atomic charges =     0.000000

 -----------------------------------------------------------------
                    Cartesian Multipole Moments
 -----------------------------------------------------------------
    Charge (ESU x 10^10)
                 0.0000
    Dipole Moment (Debye)
         X       3.1098      Y      -0.0133      Z      -0.0453
       Tot       3.1101
    Quadrupole Moments (Debye-Ang)
        XX    -129.1067     XY      -0.3328     YY    -122.5690
        XZ       0.7404     YZ       2.8817     ZZ    -127.3688
    Octopole Moments (Debye-Ang^2)
       XXX      17.1801    XXY      -0.0082    XYY      -0.5880
       YYY      -5.1756    XXZ       1.4194    XYZ      -6.4403
       YYZ      -2.2655    XZZ      13.2882    YZZ       3.0218
       ZZZ       0.4998
    Hexadecapole Moments (Debye-Ang^3)
      XXXX   -5514.9610   XXXY      -3.1180   XXYY   -1212.0971
      XYYY      -8.6971   YYYY   -1902.5599   XXXZ      10.2683
      XXYZ      17.6256   XYYZ      -1.8595   YYYZ      28.7316
      XXZZ   -1146.1545   XYZZ       5.7044   YYZZ    -548.0223
      XZZZ       7.6653   YZZZ      -3.0074   ZZZZ   -1304.9754
 -----------------------------------------------------------------
Archival summary:
1\1\nia2015.scinet.local\SP\ProcedureUnspecified\6-31G*\i111729\rhickman\TueFeb815:09:352022TueFeb815:09:352022\0\\#,ProcedureUnspecified,6-31G*,\\0,1\Si\N,1,1.77268\C,2,1.36837,1,126.577\H,3,1.07021,2,120.987,1,-4.49074,0\C,2,1.36917,1,126.666,3,172.111,0\H,5,1.07075,2,121.046,1,6.93828,0\C,5,1.37059,2,110.767,1,-174.304,0\C,3,1.37078,2,110.822,1,173.542,0\C,8,1.45117,3,122.969,2,-174.966,0\H,9,1.08455,8,114.241,3,-28.369,0\C,9,1.32656,8,126.055,3,147.306,0\H,11,1.07629,9,121.901,8,2.29398,0\H,11,1.07706,9,121.507,8,-177.571,0\C,7,1.4513,5,122.996,2,-174.64,0\H,14,1.0845,7,114.264,5,-28.3119,0\C,14,1.32649,7,126.022,5,147.401,0\H,16,1.07629,14,121.894,7,2.24,0\H,16,1.07706,14,121.514,7,-177.603,0\C,1,1.92288,2,106.172,3,172.521,0\H,19,1.0942,1,108.193,2,53.1853,0\C,19,1.52746,1,111.923,2,170.792,0\H,21,1.08683,19,111.255,1,-55.606,0\H,21,1.08723,19,110.591,1,64.9728,0\H,21,1.08925,19,110.42,1,-175.767,0\C,19,1.52889,1,112.63,2,-65.582,0\H,25,1.08684,19,111.448,1,52.7459,0\H,25,1.08742,19,110.604,1,-67.6034,0\H,25,1.08929,19,110.385,1,173.209,0\C,1,1.92783,2,105.851,3,-70.2351,0\H,29,1.09446,1,108.762,2,177.669,0\C,29,1.52855,1,112.563,2,58.6596,0\H,31,1.08714,29,111.397,1,56.4536,0\H,31,1.08733,29,110.35,1,-64.1422,0\H,31,1.0892,29,110.374,1,176.51,0\C,29,1.52997,1,111.004,2,-63.9465,0\H,35,1.08676,29,111.239,1,-60.9137,0\H,35,1.08795,29,110.416,1,59.4811,0\H,35,1.08897,29,110.384,1,178.984,0\C,1,1.92964,2,112.105,3,53.9484,0\H,39,1.09527,1,106.937,2,91.6259,0\C,39,1.52732,1,115.227,2,-26.4553,0\H,41,1.08658,39,111.019,1,55.7001,0\H,41,1.08752,39,110.961,1,-65.4136,0\H,41,1.08956,39,110.033,1,175.469,0\C,39,1.53002,1,111.364,2,-151.792,0\H,45,1.0864,39,111.333,1,-53.7304,0\H,45,1.08689,39,110.835,1,66.6844,0\H,45,1.08918,39,110.248,1,-173.827,0\\\@

 Total job time:  110.50s(wall), 110.18s(cpu) 
 Tue Feb  8 15:09:35 2022

        *************************************************************
        *                                                           *
        *  Thank you very much for using Q-Chem.  Have a nice day.  *
        *                                                           *
        *************************************************************


