
Running Job 1 of 1 fragments/C054/conf-1/spe_input.inp
qchem fragments/C054/conf-1/spe_input.inp_93367.0 /gpfs/fs0/scratch/a/aspuru/rhickman/descriptor_computation/qchem93367/ 0
/scinet/niagara/software/commercial/qc52/exe/qcprog.exe_s fragments/C054/conf-1/spe_input.inp_93367.0 /gpfs/fs0/scratch/a/aspuru/rhickman/descriptor_computation/qchem93367/
                  Welcome to Q-Chem
     A Quantum Leap Into The Future Of Chemistry


 Q-Chem 5.2, Q-Chem, Inc., Pleasanton, CA (2019)

 License issued to: SRG Alan Aspuru-Guzik, University of Toronto

 Yihan Shao,  Zhengting Gan,  E. Epifanovsky,  A. T. B. Gilbert,  M. Wormit,  
 J. Kussmann,  A. W. Lange,  A. Behn,  Jia Deng,  Xintian Feng,  D. Ghosh,  
 M. Goldey,  P. R. Horn,  L. D. Jacobson,  I. Kaliman,  T. Kus,  A. Landau,  
 Jie Liu,  E. I. Proynov,  R. M. Richard,  R. P. Steele,  E. J. Sundstrom,  
 H. L. Woodcock III,  P. M. Zimmerman,  D. Zuev,  B. Albrecht,  E. Alguire,  
 S. A. Baeppler,  D. Barton,  Z. Benda,  Y. A. Bernard,  E. J. Berquist,  
 K. B. Bravaya,  H. Burton,  D. Casanova,  Chun-Min Chang,  Yunqing Chen,  
 A. Chien,  K. D. Closser,  M. P. Coons,  S. Coriani,  S. Dasgupta,  
 A. L. Dempwolff,  M. Diedenhofen,  Hainam Do,  R. G. Edgar,  Po-Tung Fang,  
 S. Faraji,  S. Fatehi,  Qingguo Feng,  K. D. Fenk,  J. Fosso-Tande,  
 J. Gayvert,  Qinghui Ge,  A. Ghysels,  G. Gidofalvi,  J. Gomes,  
 J. Gonthier,  A. Gunina,  D. Hait,  M. W. D. Hanson-Heine,  
 P. H. P. Harbach,  A. W. Hauser,  M. F. Herbst,  J. E. Herr,  
 E. G. Hohenstein,  Z. C. Holden,  Kerwin Hui,  B. C. Huynh,  T.-C. Jagau,  
 Hyunjun Ji,  B. Kaduk,  K. Khistyaev,  Jaehoon Kim,  P. Klunzinger,  K. Koh,  
 D. Kosenkov,  L. Koulias,  T. Kowalczyk,  C. M. Krauter,  A. Kunitsa,  
 Ka Un Lao,  A. Laurent,  K. V. Lawler,  Joonho Lee,  D. Lefrancois,  
 S. Lehtola,  D. S. Levine,  Yi-Pei Li,  You-Sheng Lin,  Fenglai Liu,  
 E. Livshits,  A. Luenser,  P. Manohar,  E. Mansoor,  S. F. Manzer,  
 Shan-Ping Mao,  Yuezhi Mao,  N. Mardirossian,  A. V. Marenich,  
 T. Markovich,  L. A. Martinez-Martinez,  S. A. Maurer,  N. J. Mayhall,  
 S. C. McKenzie,  J.-M. Mewes,  P. Morgante,  A. F. Morrison,  
 J. W. Mullinax,  K. Nanda,  T. S. Nguyen-Beck,  R. Olivares-Amaya,  
 J. A. Parkhill,  Zheng Pei,  T. M. Perrine,  F. Plasser,  P. Pokhilko,  
 S. Prager,  A. Prociuk,  E. Ramos,  D. R. Rehn,  F. Rob,  M. Scheurer,  
 M. Schneider,  N. Sergueev,  S. M. Sharada,  S. Sharma,  D. W. Small,  
 T. Stauch,  T. Stein,  Yu-Chuan Su,  A. J. W. Thom,  A. Tkatchenko,  
 T. Tsuchimochi,  N. M. Tubman,  L. Vogt,  M. L. Vidal,  O. Vydrov,  
 M. A. Watson,  J. Wenzel,  M. de Wergifosse,  T. A. Wesolowski,  A. White,  
 J. Witte,  A. Yamada,  Jun Yang,  K. Yao,  S. Yeganeh,  S. R. Yost,  
 Zhi-Qiang You,  A. Zech,  Igor Ying Zhang,  Xing Zhang,  Yan Zhao,  
 Ying Zhu,  B. R. Brooks,  G. K. L. Chan,  C. J. Cramer,  M. S. Gordon,  
 W. J. Hehre,  A. Klamt,  M. W. Schmidt,  C. D. Sherrill,  D. G. Truhlar,  
 A. Aspuru-Guzik,  R. Baer,  A. T. Bell,  N. A. Besley,  Jeng-Da Chai,  
 A. E. DePrince, III,  R. A. DiStasio Jr.,  A. Dreuw,  B. D. Dunietz,  
 T. R. Furlani,  Chao-Ping Hsu,  Yousung Jung,  Jing Kong,  D. S. Lambrecht,  
 WanZhen Liang,  C. Ochsenfeld,  V. A. Rassolov,  L. V. Slipchenko,  
 J. E. Subotnik,  T. Van Voorhis,  J. M. Herbert,  A. I. Krylov,  
 P. M. W. Gill,  M. Head-Gordon

 Contributors to earlier versions of Q-Chem not listed above: 
 R. D. Adamson,  B. Austin,  J. Baker,  G. J. O. Beran,  K. Brandhorst,  
 S. T. Brown,  E. F. C. Byrd,  A. K. Chakraborty,  C.-L. Cheng,  
 Siu Hung Chien,  D. M. Chipman,  D. L. Crittenden,  H. Dachsel,  
 R. J. Doerksen,  A. D. Dutoi,  L. Fusti-Molnar,  W. A. Goddard III,  
 A. Golubeva-Zadorozhnaya,  S. R. Gwaltney,  G. Hawkins,  A. Heyden,  
 S. Hirata,  G. Kedziora,  F. J. Keil,  C. Kelley,  Jihan Kim,  R. A. King,  
 R. Z. Khaliullin,  P. P. Korambath,  W. Kurlancheek,  A. M. Lee,  M. S. Lee,  
 S. V. Levchenko,  Ching Yeh Lin,  D. Liotard,  R. C. Lochan,  I. Lotan,  
 P. E. Maslen,  N. Nair,  D. P. O'Neill,  D. Neuhauser,  E. Neuscamman,  
 C. M. Oana,  R. Olson,  B. Peters,  R. Peverati,  P. A. Pieniazek,  
 Y. M. Rhee,  J. Ritchie,  M. A. Rohrdanz,  E. Rosta,  N. J. Russ,  
 H. F. Schaefer III,  N. E. Schultz,  N. Shenvi,  A. C. Simmonett,  A. Sodt,  
 D. Stuck,  K. S. Thanthiriwatte,  V. Vanovschi,  Tao Wang,  A. Warshel,  
 C. F. Williams,  Q. Wu,  X. Xu,  W. Zhang

 Please cite Q-Chem as follows:
 Y. Shao et al., Mol. Phys. 113, 184-215 (2015)
 DOI: 10.1080/00268976.2014.952696

 Q-Chem 5.2.1 for Intel X86 EM64T Linux

 Parts of Q-Chem use Armadillo 8.300.2 (Tropical Shenanigans).
 http://arma.sourceforge.net/

 Q-Chem begins on Mon Feb  7 15:19:34 2022  

Host: 
0

     Scratch files written to /gpfs/fs0/scratch/a/aspuru/rhickman/descriptor_computation/qchem93367//
 Jul1719 |scratch|qcdevops|jenkins|workspace|build_RNUM -1
Processing $rem in /scinet/niagara/software/commercial/qc52/config/preferences:
	 MEM_TOTAL  4000 
NAlpha2: 102
NElect   102
Mult     1

Checking the input file for inconsistencies... 	...done.

--------------------------------------------------------------
User input:
--------------------------------------------------------------
$molecule
0 1
C         3.59258779760000   -2.01151313000000    0.12588984530000
C         2.28017579160000   -2.05784525350000   -0.06530818840000
C         1.35340416870000   -0.93067540650000   -0.03420952810000
C         1.78107403620000    0.39277668710000   -0.00284260870000
C         0.86158583250000    1.43369620970000    0.03164819260000
C         1.26186584030000    2.83715313850000    0.05759674500000
C         2.48255846860000    3.31827933550000   -0.14208385280000
C        -0.50263959630000    1.13205991730000    0.04494391480000
C        -0.96211815740000   -0.17531910860000    0.00536228730000
C        -2.44135121300000   -0.53239132410000    0.00555441350000
C        -3.34753364230000    0.69988148710000    0.07225866530000
C        -2.76902208280000   -1.29722616160000   -1.28451853140000
C        -2.74497808990000   -1.41339674550000    1.22543759180000
C        -0.01562686130000   -1.19240494470000   -0.03953034790000
H         4.19604315690000   -2.90243751640000    0.08907875330000
H         4.11969056530000   -1.09607098690000    0.33333710660000
H         1.81386692450000   -3.01823997230000   -0.25188621010000
H         2.83588873500000    0.61224715120000   -0.00557496680000
H         0.45222022090000    3.53207854650000    0.24783013880000
H         3.33021205580000    2.68919329270000   -0.35347243240000
H         2.68050495690000    4.37601245950000   -0.10712170670000
H        -1.19782879690000    1.95577978730000    0.07776981680000
H        -3.19529261430000    1.34572250880000   -0.78946722380000
H        -3.16853790850000    1.26853660550000    0.98193995110000
H        -4.38891790980000    0.38388701320000    0.07393901120000
H        -2.53528269500000   -0.68565960880000   -2.15367665600000
H        -3.82733254760000   -1.54835230440000   -1.31326459490000
H        -2.19882348390000   -2.21935542600000   -1.35460192270000
H        -2.49126984800000   -0.88573622440000    2.14264707070000
H        -2.17787827870000   -2.33959724590000    1.19828372180000
H        -3.80350208240000   -1.66387088120000    1.25257487340000
H        -0.33454060340000   -2.22414933230000   -0.07070139860000
$end

$rem
BASIS = 6-31G*
GUI = 2
METHOD = B3LYP
PRINT_ORBITALS false
MOLDEN_FORMAT false
--------------------------------------------------------------
 ----------------------------------------------------------------
             Standard Nuclear Orientation (Angstroms)
    I     Atom           X                Y                Z
 ----------------------------------------------------------------
    1      C       3.1082029002     2.7559292720    -0.1168518494
    2      C       1.8184769156     2.5098023890     0.0759098411
    3      C       1.1637799564     1.2058216122     0.0386183280
    4      C       1.8733979258     0.0098934322    -0.0014936303
    5      C       1.2067268149    -1.2083427553    -0.0416414311
    6      C       1.9073340378    -2.4883823285    -0.0768120599
    7      C       3.2046553267    -2.6888754796     0.1186494993
    8      C      -0.1904547078    -1.2157335976    -0.0517120748
    9      C      -0.9275212332    -0.0425620665    -0.0034558159
   10      C      -2.4490897789    -0.0213962133     0.0000375976
   11      C      -3.0605528778    -1.4231135534    -0.0735403268
   12      C      -2.9347321480     0.6444047299     1.2952168610
   13      C      -2.9428404648     0.7778815865    -1.2139805491
   14      C      -0.2292215543     1.1583396045     0.0469173448
   15      H       3.4998313731     3.7579956264    -0.0750206399
   16      H       3.8241725422     1.9809335460    -0.3305692041
   17      H       1.1518089745     3.3422026833     0.2689822106
   18      H       2.9506356494     0.0290658120    -0.0011681724
   19      H       1.2709255132    -3.3439847611    -0.2706283722
   20      H       3.8927372565    -1.8892033393     0.3331692199
   21      H       3.6314785093    -3.6764372800     0.0768381759
   22      H      -0.6863957397    -2.1725662159    -0.0890460024
   23      H      -2.7672724912    -2.0244018806     0.7839551112
   24      H      -2.7623899111    -1.9327194768    -0.9869563362
   25      H      -4.1460309251    -1.3451893116    -0.0722193221
   26      H      -2.5695309635     0.0945175255     2.1602808775
   27      H      -4.0223043235     0.6551446083     1.3265718278
   28      H      -2.5823586662     1.6693528202     1.3705484326
   29      H      -2.5808953800     0.3248187125    -2.1347392110
   30      H      -2.5944896427     1.8063692113    -1.1815489908
   31      H      -4.0306074819     0.7882694111    -1.2385116902
   32      H      -0.7682809686     2.0938325166     0.0848916783
 ----------------------------------------------------------------
 Molecular Point Group                 C1    NOp =  1
 Largest Abelian Subgroup              C1    NOp =  1
 Nuclear Repulsion Energy =         850.09420279 hartrees
 There are       51 alpha and       51 beta electrons
 Requested basis set is 6-31G(d)
 There are 92 shells and 246 basis functions

 Total QAlloc Memory Limit   4000 MB
 Mega-Array Size       188 MB
 MEM_STATIC part       192 MB
 A cutoff of  1.0D-08 yielded   2766 shell pairs
 There are     21578 function pairs
 Smallest overlap matrix eigenvalue = 3.38E-04

 Scale SEOQF with 1.000000e-01/1.000000e-01/1.000000e-01

 Standard Electronic Orientation quadrupole field applied
 Nucleus-field energy     =     0.0000000375 hartrees
 Guess from superposition of atomic densities
 Warning:  Energy on first SCF cycle will be non-variational
 SAD guess density has 102.000000 electrons

 -----------------------------------------------------------------------
  General SCF calculation program by
  Eric Jon Sundstrom, Paul Horn, Yuezhi Mao, Dmitri Zuev, Alec White,
  David Stuck, Shaama M.S., Shane Yost, Joonho Lee, David Small,
  Daniel Levine, Susi Lehtola, Hugh Burton, Evgeny Epifanovsky,
  Bang C. Huynh
 -----------------------------------------------------------------------
 Exchange:     0.2000 Hartree-Fock + 0.0800 Slater + 0.7200 B88
 Correlation:  0.1900 VWN1RPA + 0.8100 LYP
 Using SG-1 standard quadrature grid
 A restricted SCF calculation will be
 performed using DIIS
 SCF converges when DIIS error is below 1.0e-05
 ---------------------------------------
  Cycle       Energy         DIIS error
 ---------------------------------------
    1    -547.3203968473      5.10e-02  
    2    -544.0361764624      5.62e-03  
    3    -544.0478434820      5.53e-03  
    4    -544.2978312552      4.45e-04  
    5    -544.2988350392      2.69e-04  
    6    -544.2993562425      8.49e-05  
    7    -544.2994068705      2.85e-05  
    8    -544.2994130620      6.52e-06  Convergence criterion met
 ---------------------------------------
 SCF time:   CPU 43.31s  wall 43.00s 
 SCF   energy in the final basis set =     -544.2994130620
 Total energy in the final basis set =     -544.2994130620
 
 --------------------------------------------------------------
 
                    Orbital Energies (a.u.)
 --------------------------------------------------------------
 
 Alpha MOs
 -- Occupied --
-10.1979 -10.1909 -10.1904 -10.1875 -10.1875 -10.1871 -10.1801 -10.1799
-10.1797 -10.1773 -10.1769 -10.1707 -10.1701 -10.1700  -0.8690  -0.8241
 -0.8007  -0.7664  -0.7235  -0.7212  -0.6865  -0.6864  -0.6351  -0.6120
 -0.5835  -0.5508  -0.5196  -0.5089  -0.4793  -0.4675  -0.4559  -0.4412
 -0.4371  -0.4306  -0.4209  -0.4029  -0.3979  -0.3776  -0.3756  -0.3730
 -0.3709  -0.3664  -0.3592  -0.3390  -0.3324  -0.3194  -0.3146  -0.3115
 -0.2742  -0.2247  -0.2168
 -- Virtual --
 -0.0277  -0.0248   0.0506   0.0820   0.0829   0.1077   0.1108   0.1181
  0.1311   0.1388   0.1482   0.1543   0.1606   0.1648   0.1805   0.1843
  0.1940   0.1981   0.2076   0.2101   0.2194   0.2277   0.2355   0.2476
  0.2524   0.2704   0.2812   0.2989   0.3156   0.3354   0.3427   0.3796
  0.3906   0.4248   0.4421   0.4443   0.4927   0.5035   0.5092   0.5226
  0.5274   0.5426   0.5461   0.5660   0.5762   0.5807   0.5834   0.5878
  0.5970   0.6059   0.6094   0.6248   0.6297   0.6381   0.6444   0.6647
  0.6722   0.6807   0.6907   0.7050   0.7305   0.7358   0.7488   0.7697
  0.7999   0.8118   0.8199   0.8297   0.8346   0.8540   0.8649   0.8705
  0.8768   0.8827   0.8864   0.9058   0.9080   0.9172   0.9226   0.9282
  0.9365   0.9494   0.9563   0.9648   0.9680   0.9879   1.0031   1.0128
  1.0143   1.0213   1.0337   1.0505   1.0789   1.0812   1.1243   1.1448
  1.1764   1.1973   1.2319   1.2410   1.2581   1.2945   1.3075   1.3261
  1.3394   1.3524   1.3870   1.4499   1.4749   1.4791   1.4954   1.5130
  1.5279   1.5373   1.5451   1.5516   1.5969   1.6636   1.6668   1.6808
  1.6878   1.7316   1.7694   1.7897   1.8243   1.8338   1.8610   1.8770
  1.8857   1.8957   1.9389   1.9533   1.9656   1.9762   1.9807   1.9879
  2.0010   2.0251   2.0911   2.0986   2.1246   2.1430   2.1436   2.1616
  2.1737   2.1874   2.2002   2.2312   2.2470   2.2599   2.2623   2.2755
  2.2798   2.2932   2.3024   2.3144   2.3265   2.3619   2.3922   2.4115
  2.4824   2.5071   2.5176   2.5362   2.6050   2.6260   2.6371   2.6453
  2.6801   2.7021   2.7325   2.7428   2.7998   2.8542   2.9007   2.9431
  2.9774   3.0152   3.1135   3.2581   3.4733   4.0996   4.1009   4.1475
  4.1563   4.1830   4.2204   4.2517   4.2709   4.3138   4.3331   4.4501
  4.5083   4.6876   4.8148
 --------------------------------------------------------------
 
          Ground-State Mulliken Net Atomic Charges

     Atom                 Charge (a.u.)
  ----------------------------------------
      1 C                    -0.352227
      2 C                    -0.115160
      3 C                     0.186718
      4 C                    -0.253900
      5 C                     0.192328
      6 C                    -0.115626
      7 C                    -0.352150
      8 C                    -0.282460
      9 C                     0.199135
     10 C                     0.004487
     11 C                    -0.455040
     12 C                    -0.437444
     13 C                    -0.437561
     14 C                    -0.268873
     15 H                     0.142784
     16 H                     0.143022
     17 H                     0.124997
     18 H                     0.122931
     19 H                     0.125365
     20 H                     0.142695
     21 H                     0.142551
     22 H                     0.124652
     23 H                     0.146389
     24 H                     0.146037
     25 H                     0.141747
     26 H                     0.148503
     27 H                     0.138842
     28 H                     0.143451
     29 H                     0.148390
     30 H                     0.143766
     31 H                     0.138700
     32 H                     0.122950
  ----------------------------------------
  Sum of atomic charges =     0.000000

 -----------------------------------------------------------------
                    Cartesian Multipole Moments
 -----------------------------------------------------------------
    Charge (ESU x 10^10)
                 0.0000
    Dipole Moment (Debye)
         X      -0.5955      Y       0.0137      Z       0.0015
       Tot       0.5957
    Quadrupole Moments (Debye-Ang)
        XX     -79.7182     XY       0.0400     YY     -80.3833
        XZ      -0.0145     YZ       0.7096     ZZ     -89.9241
    Octopole Moments (Debye-Ang^2)
       XXX      12.5141    XXY       0.2000    XYY       5.6274
       YYY       1.5012    XXZ       0.0444    XYZ      -0.7043
       YYZ       0.1840    XZZ      -8.1988    YZZ      -1.6552
       ZZZ      -0.2495
    Hexadecapole Moments (Debye-Ang^3)
      XXXX   -2731.7690   XXXY      -0.4543   XXYY    -712.4798
      XYYY      -4.2199   YYYY   -1464.1863   XXXZ       0.2730
      XXYZ      -6.7685   XYYZ      -1.1064   YYYZ      12.7189
      XXZZ    -552.0156   XYZZ       4.4521   YYZZ    -330.6691
      XZZZ       0.6664   YZZZ       0.9082   ZZZZ    -274.4535
 -----------------------------------------------------------------
Archival summary:
1\1\nia1977.scinet.local\SP\ProcedureUnspecified\6-31G*\1418\rhickman\MonFeb715:20:172022MonFeb715:20:172022\0\\#,ProcedureUnspecified,6-31G*,\\0,1\C\C,1,1.38634\H,2,1.07837,1,120.501\C,1,1.39008,2,117.727,3,179.83,0\H,4,1.08036,1,119.913,2,179.967,0\C,4,1.39384,1,122.09,2,0.543362,0\C,6,1.39119,4,118.729,1,-0.968451,0\H,7,1.07741,6,119.65,4,-179.556,0\C,7,1.3893,6,120.655,4,0.429298,0\C,6,1.45958,4,118.592,1,179.188,0\H,10,1.0838,6,114.507,4,9.42736,0\C,10,1.32708,6,126.72,4,-169.63,0\H,12,1.07652,10,122.798,6,0.137523,0\H,12,1.07669,10,121.363,6,179.638,0\C,9,1.45965,7,122.639,6,-179.64,0\H,15,1.08381,9,114.504,7,-170.386,0\C,15,1.32719,9,126.734,7,10.5604,0\H,17,1.07655,15,122.813,9,0.126389,0\H,17,1.07666,15,121.356,9,179.721,0\C,1,1.52172,2,122.92,3,-0.00713841,0\C,20,1.53105,1,112.736,2,-0.750698,0\H,21,1.08759,20,111.135,1,61.1664,0\H,21,1.08763,20,111.091,1,-60.6605,0\H,21,1.08827,20,109.435,1,-179.748,0\C,20,1.53508,1,109.089,2,-120.814,0\H,25,1.08636,20,111.481,1,-60.9389,0\H,25,1.08809,20,110.142,1,178.949,0\H,25,1.08815,20,110.207,1,59.261,0\C,20,1.53513,1,108.923,2,119.279,0\H,29,1.08644,20,111.411,1,60.8177,0\H,29,1.08808,20,110.17,1,-179.046,0\H,29,1.08816,20,110.205,1,-59.3334,0\\\@

 Total job time:  43.69s(wall), 43.52s(cpu) 
 Mon Feb  7 15:20:17 2022

        *************************************************************
        *                                                           *
        *  Thank you very much for using Q-Chem.  Have a nice day.  *
        *                                                           *
        *************************************************************


