32
 energy: -39.103349318309 gnorm: 0.000172573256 xtb: 6.4.1 (23d549d)
C         3.59258779760000   -2.01151313000000    0.12588984530000
C         2.28017579160000   -2.05784525350000   -0.06530818840000
C         1.35340416870000   -0.93067540650000   -0.03420952810000
C         1.78107403620000    0.39277668710000   -0.00284260870000
C         0.86158583250000    1.43369620970000    0.03164819260000
C         1.26186584030000    2.83715313850000    0.05759674500000
C         2.48255846860000    3.31827933550000   -0.14208385280000
C        -0.50263959630000    1.13205991730000    0.04494391480000
C        -0.96211815740000   -0.17531910860000    0.00536228730000
C        -2.44135121300000   -0.53239132410000    0.00555441350000
C        -3.34753364230000    0.69988148710000    0.07225866530000
C        -2.76902208280000   -1.29722616160000   -1.28451853140000
C        -2.74497808990000   -1.41339674550000    1.22543759180000
C        -0.01562686130000   -1.19240494470000   -0.03953034790000
H         4.19604315690000   -2.90243751640000    0.08907875330000
H         4.11969056530000   -1.09607098690000    0.33333710660000
H         1.81386692450000   -3.01823997230000   -0.25188621010000
H         2.83588873500000    0.61224715120000   -0.00557496680000
H         0.45222022090000    3.53207854650000    0.24783013880000
H         3.33021205580000    2.68919329270000   -0.35347243240000
H         2.68050495690000    4.37601245950000   -0.10712170670000
H        -1.19782879690000    1.95577978730000    0.07776981680000
H        -3.19529261430000    1.34572250880000   -0.78946722380000
H        -3.16853790850000    1.26853660550000    0.98193995110000
H        -4.38891790980000    0.38388701320000    0.07393901120000
H        -2.53528269500000   -0.68565960880000   -2.15367665600000
H        -3.82733254760000   -1.54835230440000   -1.31326459490000
H        -2.19882348390000   -2.21935542600000   -1.35460192270000
H        -2.49126984800000   -0.88573622440000    2.14264707070000
H        -2.17787827870000   -2.33959724590000    1.19828372180000
H        -3.80350208240000   -1.66387088120000    1.25257487340000
H        -0.33454060340000   -2.22414933230000   -0.07070139860000
