
Running Job 1 of 1 fragments/C058/conf-8/spe_input.inp
qchem fragments/C058/conf-8/spe_input.inp_265171.0 /gpfs/fs0/scratch/a/aspuru/rhickman/descriptor_computation/qchem265171/ 0
/scinet/niagara/software/commercial/qc52/exe/qcprog.exe_s fragments/C058/conf-8/spe_input.inp_265171.0 /gpfs/fs0/scratch/a/aspuru/rhickman/descriptor_computation/qchem265171/
                  Welcome to Q-Chem
     A Quantum Leap Into The Future Of Chemistry


 Q-Chem 5.2, Q-Chem, Inc., Pleasanton, CA (2019)

 License issued to: SRG Alan Aspuru-Guzik, University of Toronto

 Yihan Shao,  Zhengting Gan,  E. Epifanovsky,  A. T. B. Gilbert,  M. Wormit,  
 J. Kussmann,  A. W. Lange,  A. Behn,  Jia Deng,  Xintian Feng,  D. Ghosh,  
 M. Goldey,  P. R. Horn,  L. D. Jacobson,  I. Kaliman,  T. Kus,  A. Landau,  
 Jie Liu,  E. I. Proynov,  R. M. Richard,  R. P. Steele,  E. J. Sundstrom,  
 H. L. Woodcock III,  P. M. Zimmerman,  D. Zuev,  B. Albrecht,  E. Alguire,  
 S. A. Baeppler,  D. Barton,  Z. Benda,  Y. A. Bernard,  E. J. Berquist,  
 K. B. Bravaya,  H. Burton,  D. Casanova,  Chun-Min Chang,  Yunqing Chen,  
 A. Chien,  K. D. Closser,  M. P. Coons,  S. Coriani,  S. Dasgupta,  
 A. L. Dempwolff,  M. Diedenhofen,  Hainam Do,  R. G. Edgar,  Po-Tung Fang,  
 S. Faraji,  S. Fatehi,  Qingguo Feng,  K. D. Fenk,  J. Fosso-Tande,  
 J. Gayvert,  Qinghui Ge,  A. Ghysels,  G. Gidofalvi,  J. Gomes,  
 J. Gonthier,  A. Gunina,  D. Hait,  M. W. D. Hanson-Heine,  
 P. H. P. Harbach,  A. W. Hauser,  M. F. Herbst,  J. E. Herr,  
 E. G. Hohenstein,  Z. C. Holden,  Kerwin Hui,  B. C. Huynh,  T.-C. Jagau,  
 Hyunjun Ji,  B. Kaduk,  K. Khistyaev,  Jaehoon Kim,  P. Klunzinger,  K. Koh,  
 D. Kosenkov,  L. Koulias,  T. Kowalczyk,  C. M. Krauter,  A. Kunitsa,  
 Ka Un Lao,  A. Laurent,  K. V. Lawler,  Joonho Lee,  D. Lefrancois,  
 S. Lehtola,  D. S. Levine,  Yi-Pei Li,  You-Sheng Lin,  Fenglai Liu,  
 E. Livshits,  A. Luenser,  P. Manohar,  E. Mansoor,  S. F. Manzer,  
 Shan-Ping Mao,  Yuezhi Mao,  N. Mardirossian,  A. V. Marenich,  
 T. Markovich,  L. A. Martinez-Martinez,  S. A. Maurer,  N. J. Mayhall,  
 S. C. McKenzie,  J.-M. Mewes,  P. Morgante,  A. F. Morrison,  
 J. W. Mullinax,  K. Nanda,  T. S. Nguyen-Beck,  R. Olivares-Amaya,  
 J. A. Parkhill,  Zheng Pei,  T. M. Perrine,  F. Plasser,  P. Pokhilko,  
 S. Prager,  A. Prociuk,  E. Ramos,  D. R. Rehn,  F. Rob,  M. Scheurer,  
 M. Schneider,  N. Sergueev,  S. M. Sharada,  S. Sharma,  D. W. Small,  
 T. Stauch,  T. Stein,  Yu-Chuan Su,  A. J. W. Thom,  A. Tkatchenko,  
 T. Tsuchimochi,  N. M. Tubman,  L. Vogt,  M. L. Vidal,  O. Vydrov,  
 M. A. Watson,  J. Wenzel,  M. de Wergifosse,  T. A. Wesolowski,  A. White,  
 J. Witte,  A. Yamada,  Jun Yang,  K. Yao,  S. Yeganeh,  S. R. Yost,  
 Zhi-Qiang You,  A. Zech,  Igor Ying Zhang,  Xing Zhang,  Yan Zhao,  
 Ying Zhu,  B. R. Brooks,  G. K. L. Chan,  C. J. Cramer,  M. S. Gordon,  
 W. J. Hehre,  A. Klamt,  M. W. Schmidt,  C. D. Sherrill,  D. G. Truhlar,  
 A. Aspuru-Guzik,  R. Baer,  A. T. Bell,  N. A. Besley,  Jeng-Da Chai,  
 A. E. DePrince, III,  R. A. DiStasio Jr.,  A. Dreuw,  B. D. Dunietz,  
 T. R. Furlani,  Chao-Ping Hsu,  Yousung Jung,  Jing Kong,  D. S. Lambrecht,  
 WanZhen Liang,  C. Ochsenfeld,  V. A. Rassolov,  L. V. Slipchenko,  
 J. E. Subotnik,  T. Van Voorhis,  J. M. Herbert,  A. I. Krylov,  
 P. M. W. Gill,  M. Head-Gordon

 Contributors to earlier versions of Q-Chem not listed above: 
 R. D. Adamson,  B. Austin,  J. Baker,  G. J. O. Beran,  K. Brandhorst,  
 S. T. Brown,  E. F. C. Byrd,  A. K. Chakraborty,  C.-L. Cheng,  
 Siu Hung Chien,  D. M. Chipman,  D. L. Crittenden,  H. Dachsel,  
 R. J. Doerksen,  A. D. Dutoi,  L. Fusti-Molnar,  W. A. Goddard III,  
 A. Golubeva-Zadorozhnaya,  S. R. Gwaltney,  G. Hawkins,  A. Heyden,  
 S. Hirata,  G. Kedziora,  F. J. Keil,  C. Kelley,  Jihan Kim,  R. A. King,  
 R. Z. Khaliullin,  P. P. Korambath,  W. Kurlancheek,  A. M. Lee,  M. S. Lee,  
 S. V. Levchenko,  Ching Yeh Lin,  D. Liotard,  R. C. Lochan,  I. Lotan,  
 P. E. Maslen,  N. Nair,  D. P. O'Neill,  D. Neuhauser,  E. Neuscamman,  
 C. M. Oana,  R. Olson,  B. Peters,  R. Peverati,  P. A. Pieniazek,  
 Y. M. Rhee,  J. Ritchie,  M. A. Rohrdanz,  E. Rosta,  N. J. Russ,  
 H. F. Schaefer III,  N. E. Schultz,  N. Shenvi,  A. C. Simmonett,  A. Sodt,  
 D. Stuck,  K. S. Thanthiriwatte,  V. Vanovschi,  Tao Wang,  A. Warshel,  
 C. F. Williams,  Q. Wu,  X. Xu,  W. Zhang

 Please cite Q-Chem as follows:
 Y. Shao et al., Mol. Phys. 113, 184-215 (2015)
 DOI: 10.1080/00268976.2014.952696

 Q-Chem 5.2.1 for Intel X86 EM64T Linux

 Parts of Q-Chem use Armadillo 8.300.2 (Tropical Shenanigans).
 http://arma.sourceforge.net/

 Q-Chem begins on Mon Feb  7 09:30:44 2022  

Host: 
0

     Scratch files written to /gpfs/fs0/scratch/a/aspuru/rhickman/descriptor_computation/qchem265171//
 Jul1719 |scratch|qcdevops|jenkins|workspace|build_RNUM -1
Processing $rem in /scinet/niagara/software/commercial/qc52/config/preferences:
	 MEM_TOTAL  4000 
NAlpha2: 166
NElect   166
Mult     1

Checking the input file for inconsistencies... 	...done.

--------------------------------------------------------------
User input:
--------------------------------------------------------------
$molecule
0 1
C         0.60013987870000   -3.45029960050000   -0.07865939890000
C         0.51854681020000   -2.55240379820000    0.88856518760000
C         0.03593073550000   -1.17189414180000    0.71197751320000
C        -1.12241972010000   -0.80128676330000    1.38308373220000
C        -1.69017999000000    0.45978573800000    1.26840304700000
C        -3.01413351080000    0.72378662000000    1.93323225070000
C        -4.13074977620000   -0.23252691370000    1.48810953620000
C        -4.70545173710000    0.07414484030000    0.10365142730000
C        -3.75330719650000   -0.14164638760000   -1.07322528740000
C        -3.31733210790000   -1.59223078520000   -1.26061813160000
C        -2.36394367140000   -1.73433773560000   -2.44036325990000
C        -1.01792973940000    1.41537155170000    0.49814576690000
C        -1.45477064500000    2.80959621240000    0.35318334640000
C        -1.75896735520000    3.62240391690000    1.35366823740000
C         0.14126414590000    1.03999138110000   -0.17782120630000
C         0.67883773480000   -0.23355000890000   -0.10020437280000
C         1.97577561970000   -0.53312566300000   -0.79684646860000
C         3.14148829940000   -0.40310144170000    0.18995950670000
C         4.49167067640000   -0.78033146360000   -0.41874656620000
C         4.93515566080000    0.08655145180000   -1.59961773740000
C         5.04428815320000    1.58190643410000   -1.29776530410000
C         6.07687136710000    1.90395354750000   -0.22412540160000
H         0.93061339270000   -4.45874693250000    0.10664849710000
H         0.32536912950000   -3.21646042420000   -1.09423556480000
H         0.75943428350000   -2.83061506980000    1.90862967560000
H        -1.60582755950000   -1.53808850150000    2.01082827290000
H        -3.33718423010000    1.74530309300000    1.73397983270000
H        -2.88528451750000    0.61659214940000    3.01480780450000
H        -4.94855918180000   -0.14736518180000    2.20915347870000
H        -3.77959612420000   -1.26355934700000    1.51974204660000
H        -5.03953486200000    1.11526141580000    0.09012112630000
H        -5.58849602390000   -0.55447765380000   -0.04357167330000
H        -2.86835501560000    0.48096362320000   -0.94774862390000
H        -4.26076027210000    0.18929017060000   -1.98386267250000
H        -4.19771193720000   -2.21978374360000   -1.42037838840000
H        -2.80945188890000   -1.94528437360000   -0.36255610680000
H        -2.83143444820000   -1.38432611300000   -3.35859626550000
H        -2.07619722420000   -2.77450391380000   -2.57716842660000
H        -1.46456942350000   -1.14671842670000   -2.26599932600000
H        -1.45559075090000    3.18773110220000   -0.66288322730000
H        -1.71878491750000    3.30171285680000    2.38147166060000
H        -2.03795078930000    4.64906258800000    1.18430814570000
H         0.64632891350000    1.78365571570000   -0.78040147640000
H         2.11049636480000    0.16966809420000   -1.62003286680000
H         1.97222896780000   -1.54385088720000   -1.20407758980000
H         2.94981295630000   -1.06645172470000    1.03740235160000
H         3.17349521880000    0.61688618170000    0.57700199070000
H         4.44233651980000   -1.81809471560000   -0.75946178670000
H         5.25053127160000   -0.73337997390000    0.36479032850000
H         4.23917757050000   -0.05302805900000   -2.42937914520000
H         5.91180399630000   -0.27309783390000   -1.93448000780000
H         4.07131070220000    1.97096592240000   -0.99347984310000
H         5.32435086770000    2.09476024030000   -2.22167658710000
H         5.77848408170000    1.49856143990000    0.73918424100000
H         6.18751692960000    2.98097238150000   -0.11760651210000
H         7.04529078530000    1.48490783770000   -0.48977870380000
$end

$rem
BASIS = 6-31G*
GUI = 2
METHOD = B3LYP
PRINT_ORBITALS false
MOLDEN_FORMAT false
--------------------------------------------------------------
 ----------------------------------------------------------------
             Standard Nuclear Orientation (Angstroms)
    I     Atom           X                Y                Z
 ----------------------------------------------------------------
    1      C      -0.3917042205     3.3351107124     0.9695430319
    2      C      -0.2448859656     2.2014868274     1.6341775095
    3      C       0.1385817631     0.9163687288     1.0248070414
    4      C       1.3464487962     0.3513927554     1.4138681471
    5      C       1.8280714175    -0.8379481088     0.8853653593
    6      C       3.2051327643    -1.3019397340     1.2764677499
    7      C       4.3111786443    -0.2805540059     0.9716146774
    8      C       4.7010885176    -0.1992095091    -0.5056826953
    9      C       3.6296505626     0.3544804285    -1.4456997396
   10      C       3.2532260500     1.8076276394    -1.1699222561
   11      C       2.1762544661     2.2914019006    -2.1327499331
   12      C       1.0191891950    -1.5276317718    -0.0248032621
   13      C       1.3602648201    -2.8338863029    -0.6019280342
   14      C       1.7363071226    -3.8992963391     0.0891983375
   15      C      -0.1898313898    -0.9567006176    -0.4170773089
   16      C      -0.6452277457     0.2543921628     0.0756557271
   17      C      -1.9973448763     0.7609117824    -0.3394596779
   18      C      -3.0436966291     0.3824715740     0.7148217839
   19      C      -4.4340516423     0.9399904326     0.4116655808
   20      C      -5.0598092725     0.4458149835    -0.8947951561
   21      C      -5.2127802719    -1.0720199523    -1.0038286209
   22      C      -6.1271999943    -1.6615604517     0.0633750373
   23      H      -0.6432892520     4.2577366058     1.4655109885
   24      H      -0.2517254860     3.3890190174    -0.0977313106
   25      H      -0.3483522047     2.1882869980     2.7135663866
   26      H       1.9394965784     0.8743795518     2.1523817135
   27      H       3.4470087902    -2.2330792943     0.7645748849
   28      H       3.2108255785    -1.4986056687     2.3531239151
   29      H       5.2026246492    -0.5790282294     1.5303688896
   30      H       4.0221597306     0.7070532445     1.3299962729
   31      H       4.9747761099    -1.2012314109    -0.8473924218
   32      H       5.5930876807     0.4287921903    -0.5866731411
   33      H       2.7335155219    -0.2616410396    -1.3835361938
   34      H       4.0075140370     0.2814930019    -2.4695064142
   35      H       4.1410456425     2.4381533220    -1.2628116188
   36      H       2.8746435187     1.9053677093    -0.1519700474
   37      H       2.5125710285     2.2029741886    -3.1639042981
   38      H       1.9307124483     3.3336168992    -1.9405095526
   39      H       1.2734720682     1.6954938077    -2.0125386264
   40      H       1.2207918989    -2.9132178996    -1.6741368532
   41      H       1.8350475227    -3.8776500112     1.1618674528
   42      H       1.9377408225    -4.8428903304    -0.3899649626
   43      H      -0.8017511943    -1.4928948646    -1.1307158213
   44      H      -2.2658972190     0.3185870165    -1.2996331159
   45      H      -1.9875643254     1.8448920590    -0.4503936427
   46      H      -2.7179279215     0.7790846519     1.6799669678
   47      H      -3.0845783987    -0.7042285139     0.8076263041
   48      H      -4.3695639994     2.0304942992     0.3656661402
   49      H      -5.0965205889     0.6904079128     1.2428378681
   50      H      -4.4601685928     0.7984140872    -1.7365058328
   51      H      -6.0484020839     0.9029657830    -0.9897673624
   52      H      -4.2330184212    -1.5487989810    -0.9456004404
   53      H      -5.6271258947    -1.3011357410    -1.9891660604
   54      H      -5.6958109399    -1.5469580300     1.0543911669
   55      H      -6.2822405157    -2.7232050220    -0.1167125140
   56      H      -7.0962692562    -1.1668661181     0.0496114858
 ----------------------------------------------------------------
 Molecular Point Group                 C1    NOp =  1
 Largest Abelian Subgroup              C1    NOp =  1
 Nuclear Repulsion Energy =        1842.93860393 hartrees
 There are       83 alpha and       83 beta electrons
 Requested basis set is 6-31G(d)
 There are 156 shells and 398 basis functions

 Total QAlloc Memory Limit   4000 MB
 Mega-Array Size       188 MB
 MEM_STATIC part       192 MB
 A cutoff of  1.0D-08 yielded   6062 shell pairs
 There are     42359 function pairs
 Smallest overlap matrix eigenvalue = 2.86E-04

 Scale SEOQF with 1.000000e-02/1.000000e-01/1.000000e-01

 Standard Electronic Orientation quadrupole field applied
 Nucleus-field energy     =     0.0000000210 hartrees
 Guess from superposition of atomic densities
 Warning:  Energy on first SCF cycle will be non-variational
 SAD guess density has 166.000001 electrons

 -----------------------------------------------------------------------
  General SCF calculation program by
  Eric Jon Sundstrom, Paul Horn, Yuezhi Mao, Dmitri Zuev, Alec White,
  David Stuck, Shaama M.S., Shane Yost, Joonho Lee, David Small,
  Daniel Levine, Susi Lehtola, Hugh Burton, Evgeny Epifanovsky,
  Bang C. Huynh
 -----------------------------------------------------------------------
 Exchange:     0.2000 Hartree-Fock + 0.0800 Slater + 0.7200 B88
 Correlation:  0.1900 VWN1RPA + 0.8100 LYP
 Using SG-1 standard quadrature grid
 A restricted SCF calculation will be
 performed using DIIS
 SCF converges when DIIS error is below 1.0e-05
 ---------------------------------------
  Cycle       Energy         DIIS error
 ---------------------------------------
    1    -863.2773916197      3.97e-02  
    2    -858.3384058564      4.52e-03  
    3    -858.2936746806      4.81e-03  
    4    -858.7837363231      4.38e-04  
    5    -858.7868656042      1.91e-04  
    6    -858.7874682411      8.61e-05  
    7    -858.7876129397      2.89e-05  
    8    -858.7876304542      5.78e-06  Convergence criterion met
 ---------------------------------------
 SCF time:   CPU 143.48s  wall 144.00s 
 SCF   energy in the final basis set =     -858.7876304542
 Total energy in the final basis set =     -858.7876304542
 
 --------------------------------------------------------------
 
                    Orbital Energies (a.u.)
 --------------------------------------------------------------
 
 Alpha MOs
 -- Occupied --
-10.1888 -10.1877 -10.1871 -10.1861 -10.1852 -10.1848 -10.1791 -10.1781
-10.1772 -10.1767 -10.1745 -10.1736 -10.1727 -10.1722 -10.1708 -10.1703
-10.1700 -10.1663 -10.1661 -10.1620 -10.1593 -10.1581  -0.8688  -0.8187
 -0.8032  -0.7987  -0.7780  -0.7685  -0.7585  -0.7377  -0.7154  -0.7080
 -0.6832  -0.6549  -0.6308  -0.6222  -0.6043  -0.5945  -0.5821  -0.5675
 -0.5455  -0.5411  -0.5297  -0.4912  -0.4876  -0.4757  -0.4681  -0.4582
 -0.4559  -0.4453  -0.4371  -0.4294  -0.4281  -0.4245  -0.4184  -0.4113
 -0.4070  -0.3997  -0.3912  -0.3886  -0.3830  -0.3747  -0.3699  -0.3632
 -0.3592  -0.3525  -0.3489  -0.3457  -0.3427  -0.3378  -0.3288  -0.3259
 -0.3210  -0.3149  -0.3076  -0.3066  -0.3034  -0.3009  -0.2993  -0.2789
 -0.2631  -0.2322  -0.2151
 -- Virtual --
 -0.0218   0.0042   0.0153   0.0496   0.0823   0.0959   0.1038   0.1056
  0.1163   0.1179   0.1209   0.1337   0.1342   0.1387   0.1441   0.1485
  0.1543   0.1577   0.1584   0.1635   0.1673   0.1730   0.1761   0.1801
  0.1807   0.1873   0.1902   0.1923   0.2007   0.2037   0.2096   0.2116
  0.2154   0.2184   0.2200   0.2229   0.2252   0.2280   0.2347   0.2421
  0.2482   0.2515   0.2520   0.2592   0.2686   0.2763   0.2815   0.2910
  0.2925   0.3028   0.3128   0.3158   0.3318   0.3442   0.3478   0.3703
  0.3808   0.4013   0.4161   0.4848   0.4953   0.4994   0.5065   0.5113
  0.5138   0.5195   0.5218   0.5266   0.5295   0.5348   0.5388   0.5446
  0.5500   0.5593   0.5637   0.5732   0.5765   0.5912   0.5977   0.6008
  0.6189   0.6227   0.6268   0.6331   0.6425   0.6505   0.6564   0.6581
  0.6628   0.6731   0.6797   0.6806   0.6847   0.6951   0.6982   0.6982
  0.7096   0.7171   0.7215   0.7333   0.7396   0.7452   0.7515   0.7622
  0.7758   0.7879   0.7914   0.8064   0.8087   0.8257   0.8317   0.8428
  0.8440   0.8507   0.8567   0.8588   0.8683   0.8710   0.8749   0.8768
  0.8823   0.8861   0.8882   0.8943   0.8970   0.9032   0.9109   0.9159
  0.9230   0.9282   0.9364   0.9407   0.9505   0.9570   0.9672   0.9716
  0.9727   0.9752   0.9780   0.9852   0.9880   0.9954   0.9979   1.0004
  1.0099   1.0118   1.0174   1.0351   1.0392   1.0460   1.0577   1.0651
  1.0873   1.0944   1.1047   1.1096   1.1266   1.1408   1.1439   1.1655
  1.1799   1.1906   1.2169   1.2193   1.2365   1.2550   1.2873   1.2942
  1.3027   1.3203   1.3410   1.3566   1.4011   1.4103   1.4348   1.4390
  1.4603   1.4801   1.4990   1.5024   1.5093   1.5151   1.5205   1.5351
  1.5390   1.5651   1.5888   1.6101   1.6274   1.6336   1.6462   1.6535
  1.6615   1.6823   1.6935   1.7051   1.7129   1.7467   1.7614   1.7752
  1.7870   1.8055   1.8152   1.8334   1.8390   1.8503   1.8658   1.8800
  1.8850   1.9027   1.9211   1.9277   1.9346   1.9452   1.9504   1.9554
  1.9739   1.9782   1.9868   1.9900   1.9994   2.0002   2.0106   2.0175
  2.0344   2.0479   2.0559   2.0622   2.0756   2.0843   2.0926   2.1040
  2.1112   2.1423   2.1586   2.1618   2.1750   2.1860   2.2001   2.2229
  2.2337   2.2391   2.2581   2.2760   2.2847   2.2905   2.2949   2.3207
  2.3232   2.3324   2.3385   2.3548   2.3658   2.3693   2.3820   2.3953
  2.4026   2.4143   2.4174   2.4303   2.4446   2.4531   2.4591   2.4655
  2.4779   2.4878   2.5073   2.5301   2.5317   2.5680   2.5900   2.6252
  2.6344   2.6572   2.6699   2.6795   2.7095   2.7226   2.7296   2.7485
  2.7547   2.7712   2.7901   2.8033   2.8168   2.8280   2.8736   2.9035
  2.9831   3.0023   3.1076   3.2198   3.4741   4.1265   4.1320   4.1549
  4.1694   4.1843   4.2020   4.2167   4.2513   4.2665   4.3053   4.3491
  4.3848   4.3878   4.4265   4.4595   4.4786   4.5065   4.5277   4.5567
  4.5885   4.6261   4.8347
 --------------------------------------------------------------
 
          Ground-State Mulliken Net Atomic Charges

     Atom                 Charge (a.u.)
  ----------------------------------------
      1 C                    -0.322937
      2 C                    -0.154533
      3 C                     0.091242
      4 C                    -0.250779
      5 C                     0.137760
      6 C                    -0.349661
      7 C                    -0.261180
      8 C                    -0.254960
      9 C                    -0.254627
     10 C                    -0.250602
     11 C                    -0.448905
     12 C                     0.084257
     13 C                    -0.141970
     14 C                    -0.328637
     15 C                    -0.252820
     16 C                     0.135560
     17 C                    -0.350072
     18 C                    -0.258985
     19 C                    -0.258703
     20 C                    -0.255236
     21 C                    -0.253785
     22 C                    -0.444739
     23 H                     0.141862
     24 H                     0.153065
     25 H                     0.141423
     26 H                     0.124176
     27 H                     0.151182
     28 H                     0.140088
     29 H                     0.126800
     30 H                     0.138271
     31 H                     0.125228
     32 H                     0.123798
     33 H                     0.145903
     34 H                     0.119448
     35 H                     0.122098
     36 H                     0.144177
     37 H                     0.135941
     38 H                     0.135216
     39 H                     0.149986
     40 H                     0.138217
     41 H                     0.149513
     42 H                     0.141592
     43 H                     0.118651
     44 H                     0.141815
     45 H                     0.145358
     46 H                     0.136524
     47 H                     0.139405
     48 H                     0.128575
     49 H                     0.131706
     50 H                     0.132014
     51 H                     0.126192
     52 H                     0.134245
     53 H                     0.129789
     54 H                     0.148432
     55 H                     0.142060
     56 H                     0.141561
  ----------------------------------------
  Sum of atomic charges =     0.000000

 -----------------------------------------------------------------
                    Cartesian Multipole Moments
 -----------------------------------------------------------------
    Charge (ESU x 10^10)
                 0.0000
    Dipole Moment (Debye)
         X      -0.2923      Y      -0.1276      Z       0.3152
       Tot       0.4484
    Quadrupole Moments (Debye-Ang)
        XX    -138.8052     XY      -2.6420     YY    -134.6666
        XZ       2.2820     YZ       2.5468     ZZ    -135.9639
    Octopole Moments (Debye-Ang^2)
       XXX      -6.7351    XXY      -2.3167    XYY       3.7563
       YYY      -3.3636    XXZ       1.0477    XYZ      -3.0414
       YYZ       0.6885    XZZ       1.9261    YZZ      -0.5809
       ZZZ       6.5827
    Hexadecapole Moments (Debye-Ang^3)
      XXXX   -9018.7913   XXXY      -4.0433   XXYY   -1951.9796
      XYYY     -62.2913   YYYY   -2543.7890   XXXZ      37.7919
      XXYZ      -2.0184   XYYZ       0.4598   YYYZ      27.1150
      XXZZ   -1685.0525   XYZZ      -7.0466   YYZZ    -618.8817
      XZZZ       3.7136   YZZZ      21.4183   ZZZZ   -1123.8471
 -----------------------------------------------------------------
Archival summary:
1\1\nia0231.scinet.local\SP\ProcedureUnspecified\6-31G*\2234\rhickman\MonFeb709:33:082022MonFeb709:33:082022\0\\#,ProcedureUnspecified,6-31G*,\\0,1\C\C,1,1.38453\H,2,1.08223,1,118.822\C,2,1.3934,1,122.93,3,-179.303,0\C,1,1.39766,2,118.133,3,178.226,0\C,5,1.38907,1,119.026,2,1.25685,0\H,6,1.08195,5,118.112,1,-179.764,0\C,6,1.38773,5,122.936,1,1.10416,0\C,4,1.46823,2,117.093,1,178.415,0\H,9,1.08415,4,115.085,2,46.6824,0\C,9,1.32445,4,125.206,2,-129.255,0\H,11,1.07728,9,121.707,4,177.629,0\H,11,1.07742,9,121.964,4,-0.889419,0\C,5,1.47306,1,123.24,2,-179.289,0\H,14,1.08442,5,115.213,1,120.423,0\C,14,1.32227,5,124.675,1,-63.2677,0\H,16,1.07727,14,121.923,5,-178.003,0\H,16,1.07776,14,121.75,5,1.08353,0\C,1,1.50237,2,119.512,3,2.8401,0\H,19,1.08969,1,110.82,2,-143.738,0\H,19,1.09074,1,109.153,2,-24.3999,0\C,8,1.50484,6,118.872,5,174.352,0\H,22,1.08975,8,110.15,6,-178.691,0\H,22,1.09449,8,108.411,6,63.4541,0\C,19,1.53283,1,109.942,2,95.9871,0\H,25,1.09142,19,109.261,1,-60.4258,0\H,25,1.09313,19,108.316,1,56.1547,0\C,25,1.52834,19,113.235,1,176.283,0\H,28,1.09179,25,108.517,19,-175.785,0\H,28,1.09338,25,108.573,19,-59.5754,0\C,28,1.53056,25,115.053,19,61.645,0\H,31,1.09196,28,109.22,25,-64.4994,0\H,31,1.09331,28,107.989,25,179.321,0\C,31,1.52942,28,114.972,25,57.9599,0\H,34,1.09117,31,109.878,28,-60.86,0\H,34,1.09319,31,108.069,28,-177.603,0\C,34,1.52402,31,113.203,28,61.79,0\H,37,1.0869,34,111.073,31,-65.8415,0\H,37,1.08791,34,110.309,31,174.338,0\H,37,1.08812,34,110.465,31,54.5883,0\C,22,1.53607,8,113.723,6,-56.8282,0\H,41,1.08965,22,110.268,8,47.8746,0\H,41,1.0936,22,107.702,8,164.526,0\C,41,1.53005,22,114.234,8,-76.1907,0\H,44,1.09349,41,108.469,22,-54.918,0\H,44,1.0939,41,108.048,22,-171.035,0\C,44,1.52911,41,115.737,22,67.0723,0\H,47,1.08928,44,109.667,41,-58.6773,0\H,47,1.09375,44,108.011,41,-175.491,0\C,47,1.52623,44,113.985,41,63.8119,0\H,50,1.09046,47,109.855,44,-59.4949,0\H,50,1.09289,47,109.487,44,58.9962,0\C,50,1.52346,47,111.254,44,-179.564,0\H,53,1.08787,50,110.616,47,-178.828,0\H,53,1.08821,50,110.768,47,-58.6523,0\H,53,1.08838,50,110.042,47,61.26,0\\\@

 Total job time:  144.33s(wall), 143.95s(cpu) 
 Mon Feb  7 09:33:08 2022

        *************************************************************
        *                                                           *
        *  Thank you very much for using Q-Chem.  Have a nice day.  *
        *                                                           *
        *************************************************************


