
Running Job 1 of 1 tidas/B057/conf-1/spe_input.inp
qchem tidas/B057/conf-1/spe_input.inp_152021.0 /home/a/aspuru/seifridm/acdc_laser/descriptor_computation/qchem152021/ 0
/gpfs/fs1/scinet/niagara/software/commercial/qc54/exe/qcprog.exe_s tidas/B057/conf-1/spe_input.inp_152021.0 /home/a/aspuru/seifridm/acdc_laser/descriptor_computation/qchem152021/
                  Welcome to Q-Chem
     A Quantum Leap Into The Future Of Chemistry


 Q-Chem 5.4, Q-Chem, Inc., Pleasanton, CA (2021)

 License issued to: SRG Alan Aspuru-Guzik, University of Toronto

 E. Epifanovsky,  A. T. B. Gilbert,  Xintian Feng,  Joonho Lee,  Yuezhi Mao,  
 N. Mardirossian,  P. Pokhilko,  A. White,  M. Wormit,  M. P. Coons,  
 A. L. Dempwolff,  Zhengting Gan,  D. Hait,  P. R. Horn,  L. D. Jacobson,  
 I. Kaliman,  J. Kussmann,  A. W. Lange,  Ka Un Lao,  D. S. Levine,  Jie Liu,  
 S. C. McKenzie,  A. F. Morrison,  K. Nanda,  F. Plasser,  D. R. Rehn,  
 M. L. Vidal,  Zhi-Qiang You,  Ying Zhu,  B. Alam,  B. Albrecht,  
 A. Aldossary,  E. Alguire,  J. H. Andersen,  D. Barton,  K. Begam,  A. Behn,  
 Y. A. Bernard,  E. J. Berquist,  H. Burton,  A. Carreras,  K. Carter-Fenk,  
 Romit Chakraborty,  A. D. Chien,  K. D. Closser,  V. Cofer-Shabica,  
 S. Dasgupta,  Jia Deng,  M. de Wergifosse,  M. Diedenhofen,  Hainam Do,  
 S. Ehlert,  Po-Tung Fang,  S. Fatehi,  Qingguo Feng,  T. Friedhoff,  
 J. Gayvert,  Qinghui Ge,  G. Gidofalvi,  M. Goldey,  J. Gomes,  
 C. Gonzalez-Espinoza,  S. Gulania,  A. Gunina,  M. W. D. Hanson-Heine,  
 P. H. P. Harbach,  A. W. Hauser,  M. F. Herbst,  M. Hernandez Vera,  
 M. Hodecker,  Z. C. Holden,  S. Houck,  Xunkun Huang,  Kerwin Hui,  
 B. C. Huynh,  M. Ivanov,  Hyunjun Ji,  Hanjie Jiang,  B. Kaduk,  S. Kaehler,  
 K. Khistyaev,  Jaehoon Kim,  P. Klunzinger,  Z. Koczor-Benda,  
 Joong Hoon Koh,  D. Kosenkov,  L. Koulias,  T. Kowalczyk,  C. M. Krauter,  
 K. Kue,  A. Kunitsa,  T. Kus,  A. Landau,  K. V. Lawler,  D. Lefrancois,  
 S. Lehtola,  Rain Li,  Yi-Pei Li,  Jiashu Liang,  M. Liebenthal,  
 Hung-Hsuan Lin,  You-Sheng Lin,  Fenglai Liu,  Kuan-Yu Liu,  
 M. Loipersberger,  A. Luenser,  A. Manjanath,  P. Manohar,  E. Mansoor,  
 S. F. Manzer,  Shan-Ping Mao,  A. V. Marenich,  T. Markovich,  S. Mason,  
 S. A. Maurer,  P. F. McLaughlin,  M. F. S. J. Menger,  J.-M. Mewes,  
 S. A. Mewes,  P. Morgante,  J. W. Mullinax,  K. J. Oosterbaan,  G. Paran,  
 Alexander C. Paul,  Suranjan K. Paul,  F. Pavosevic,  Zheng Pei,  S. Prager,  
 E. I. Proynov,  E. Ramos,  B. Rana,  A. E. Rask,  A. Rettig,  R. M. Richard,  
 F. Rob,  E. Rossomme,  T. Scheele,  M. Scheurer,  M. Schneider,  
 N. Sergueev,  S. M. Sharada,  W. Skomorowski,  D. W. Small,  C. J. Stein,  
 Yu-Chuan Su,  E. J. Sundstrom,  Zhen Tao,  J. Thirman,  T. Tsuchimochi,  
 N. M. Tubman,  S. P. Veccham,  O. Vydrov,  J. Wenzel,  J. Witte,  A. Yamada,  
 Kun Yao,  S. Yeganeh,  S. R. Yost,  A. Zech,  Igor Ying Zhang,  Xing Zhang,  
 Yu Zhang,  D. Zuev,  A. Aspuru-Guzik,  A. T. Bell,  N. A. Besley,  
 K. B. Bravaya,  B. R. Brooks,  D. Casanova,  Jeng-Da Chai,  S. Coriani,  
 C. J. Cramer,  A. E. DePrince, III,  R. A. DiStasio Jr.,  A. Dreuw,  
 B. D. Dunietz,  T. R. Furlani,  W. A. Goddard III,  S. Grimme,  
 S. Hammes-Schiffer,  T. Head-Gordon,  W. J. Hehre,  Chao-Ping Hsu,  
 T.-C. Jagau,  Yousung Jung,  A. Klamt,  Jing Kong,  D. S. Lambrecht,  
 WanZhen Liang,  N. J. Mayhall,  C. W. McCurdy,  J. B. Neaton,  T. Neudecker,  
 C. Ochsenfeld,  J. A. Parkhill,  R. Peverati,  V. A. Rassolov,  Yihan Shao,  
 L. V. Slipchenko,  R. P. Steele,  J. E. Subotnik,  A. J. W. Thom,  
 A. Tkatchenko,  D. G. Truhlar,  T. Van Voorhis,  T. A. Wesolowski,  
 K. B. Whaley,  H. L. Woodcock III,  P. M. Zimmerman,  S. Faraji,  
 P. M. W. Gill,  M. Head-Gordon,  J. M. Herbert,  A. I. Krylov

 Additional authors since Version 5.4.0: 
 Chandrima Chakravarty,  L. Cunha,  R. Kang,  Yongbin Kim,  S. Kotaru,  
 Shaozhi Li,  Xiangyuan Li,  F. Matz,  A. Molle,  V. Parravicini,  
 Haisheng Ren,  Hengyuan Shen,  Yingli Su,  Hung-Yi Tsai,  C. Utku,  
 Fang Wang,  Jeff Yang,  F. Zeller

 Contributors to earlier versions of Q-Chem not listed above: 
 R. D. Adamson,  B. Austin,  R. Baer,  J. Baker,  G. J. O. Beran,  
 K. Brandhorst,  S. T. Brown,  E. F. C. Byrd,  Arup K. Chakraborty,  
 G. K. L. Chan,  Chun-Min Chang,  Yunqing Chen,  C.-L. Cheng,  
 Siu Hung Chien,  D. M. Chipman,  D. L. Crittenden,  H. Dachsel,  
 R. J. Doerksen,  A. D. Dutoi,  R. G. Edgar,  J. Fosso-Tande,  
 L. Fusti-Molnar,  D. Ghosh,  A. Ghysels,  A. Golubeva-Zadorozhnaya,  
 J. Gonthier,  M. S. Gordon,  S. R. Gwaltney,  G. Hawkins,  J. E. Herr,  
 A. Heyden,  S. Hirata,  E. G. Hohenstein,  G. Kedziora,  F. J. Keil,  
 C. Kelley,  Jihan Kim,  R. A. King,  R. Z. Khaliullin,  P. P. Korambath,  
 W. Kurlancheek,  A. Laurent,  A. M. Lee,  M. S. Lee,  S. V. Levchenko,  
 Ching Yeh Lin,  D. Liotard,  E. Livshits,  R. C. Lochan,  I. Lotan,  
 L. A. Martinez-Martinez,  P. E. Maslen,  N. Nair,  D. P. O'Neill,  
 D. Neuhauser,  E. Neuscamman,  C. M. Oana,  R. Olivares-Amaya,  R. Olson,  
 T. M. Perrine,  B. Peters,  P. A. Pieniazek,  A. Prociuk,  Y. M. Rhee,  
 J. Ritchie,  M. A. Rohrdanz,  E. Rosta,  N. J. Russ,  H. F. Schaefer III,  
 M. W. Schmidt,  N. E. Schultz,  S. Sharma,  N. Shenvi,  C. D. Sherrill,  
 A. C. Simmonett,  A. Sodt,  T. Stein,  D. Stuck,  K. S. Thanthiriwatte,  
 V. Vanovschi,  L. Vogt,  Tao Wang,  A. Warshel,  M. A. Watson,  
 C. F. Williams,  Q. Wu,  X. Xu,  Jun Yang,  W. Zhang,  Yan Zhao

   Please cite Q-Chem as follows:
  "Software for the frontiers of quantum chemistry:
   An overview of developments in the Q-Chem 5 package"
   J. Chem. Phys. 155, 084801 (2021)
   https://doi.org/10.1063/5.0055522 (open access)

 Q-Chem 5.4.2 for Intel X86 EM64T Linux

 Parts of Q-Chem use Armadillo 9.900.5 (Nocturnal Misbehaviour).
 http://arma.sourceforge.net/

 Q-Chem begins on Fri Aug 12 13:13:17 2022  

 Host: 
0

     Scratch files written to /home/a/aspuru/seifridm/acdc_laser/descriptor_computation/qchem152021//
 Dec1321 |scratch|qcdevops|jenkins|workspace|build_RNUM 6959   
 Processing $rem in /gpfs/fs1/scinet/niagara/software/commercial/qc54/config/preferences:
 Processing $rem in /home/a/aspuru/seifridm/.qchemrc:

 Checking the input file for inconsistencies... 	...done.

--------------------------------------------------------------
User input:
--------------------------------------------------------------
$molecule
0 1
C            1.27074530650000       -2.82441054890000       -0.45249512620000
C            1.90419284280000       -1.84659582080000        0.18155688410000
C            1.51675463780000       -0.44296688200000        0.16477012760000
C            2.43771754360000        0.56320454860000        0.13946032350000
S            1.72570113320000        2.12110727480000        0.04679848510000
C            0.15713310200000        1.43768149570000        0.07008836900000
C            0.17520930160000        0.07155048400000        0.13848542590000
C           -0.99723992390000       -0.76895608720000        0.26819529250000
C           -2.24123380720000       -0.42360649140000       -0.02524328460000
F           -2.65262101120000        0.73711206630000       -0.52721525720000
F           -3.29029219940000       -1.22795566990000        0.13601907690000
H            1.62579274610000       -3.83984063940000       -0.41049263270000
H            0.39770465360000       -2.64864657920000       -1.05790487660000
H            2.81476683630000       -2.05994749670000        0.72737301470000
H            3.50566870420000        0.46942484030000        0.14091693910000
H           -0.69635453860000        2.08477813380000        0.05538954080000
H           -0.84724116320000       -1.76615063090000        0.65245979590000
$end

$rem
BASIS = 6-31G*
GUI = 2
METHOD = B3LYP
PRINT_ORBITALS false
MOLDEN_FORMAT false
$end
--------------------------------------------------------------
 ----------------------------------------------------------------
             Standard Nuclear Orientation (Angstroms)
    I     Atom           X                Y                Z
 ----------------------------------------------------------------
    1      C      -0.4231993303    -2.9997062252     0.4625025800
    2      C      -1.3095174523    -2.2172927428    -0.1388863995
    3      C      -1.2975028639    -0.7612665210    -0.1186961339
    4      C      -2.4456695373    -0.0275340574    -0.0512856764
    5      S      -2.1575027863     1.6612509118     0.0357760295
    6      C      -0.4674317720     1.4067418455    -0.0473141906
    7      C      -0.1343478504     0.0825847914    -0.1308728212
    8      C       1.2101615230    -0.4258139559    -0.3090255388
    9      C       2.3321804844     0.2286991979    -0.0529409719
   10      F       2.4470309535     1.4550005773     0.4485340121
   11      F       3.5471217748    -0.2765965458    -0.2581251152
   12      H      -0.5051119525    -4.0722964636     0.4205303848
   13      H       0.3954103825    -2.6057499096     1.0406811684
   14      H      -2.1525689187    -2.6574197742    -0.6567006565
   15      H      -3.4525162590    -0.3942766800    -0.0184837761
   16      H       0.1898863800     2.2524884183    -0.0533845167
   17      H       1.3095311848    -1.4268704593    -0.6996242356
 ----------------------------------------------------------------
 Molecular Point Group                 C1    NOp =  1
 Largest Abelian Subgroup              C1    NOp =  1
 Nuclear Repulsion Energy =         656.63456936 hartrees
 There are       44 alpha and       44 beta electrons
 Requested basis set is 6-31G(d)
 There are 57 shells and 181 basis functions

 Total QAlloc Memory Limit   8000 MB
 Mega-Array Size       188 MB
 MEM_STATIC part       192 MB
 A cutoff of  1.0D-08 yielded   1227 shell pairs
 There are     12975 function pairs
 Smallest overlap matrix eigenvalue = 9.20E-04

 Scale SEOQF with 1.000000e-01/1.000000e-01/1.000000e+00

 Standard Electronic Orientation quadrupole field applied
 Nucleus-field energy     =     0.0000000200 hartrees
 Guess from superposition of atomic densities
 Warning:  Energy on first SCF cycle will be non-variational
 SAD guess density has 88.000000 electrons

 -----------------------------------------------------------------------
  General SCF calculation program by
  Eric Jon Sundstrom, Paul Horn, Yuezhi Mao, Dmitri Zuev, Alec White,
  David Stuck, Shaama M.S., Shane Yost, Joonho Lee, David Small,
  Daniel Levine, Susi Lehtola, Hugh Burton, Evgeny Epifanovsky,
  Bang C. Huynh
 -----------------------------------------------------------------------
 Exchange:     0.2000 Hartree-Fock + 0.0800 Slater + 0.7200 B88
 Correlation:  0.1900 VWN1RPA + 0.8100 LYP
 Using SG-1 standard quadrature grid
 A restricted SCF calculation will be
 performed using DIIS
 SCF converges when DIIS error is below 1.0e-05
 ---------------------------------------
  Cycle       Energy         DIIS error
 ---------------------------------------
    1    -908.7471820508      5.85e-02  
    2    -906.0624655720      6.99e-03  
    3    -905.7737502948      1.06e-02  
    4    -906.2500364759      2.01e-03  
    5    -906.2652805197      6.55e-04  
    6    -906.2667231250      2.41e-04  
    7    -906.2669422981      5.99e-05  
    8    -906.2669584546      1.66e-05  
    9    -906.2669600520      4.59e-06  Convergence criterion met
 ---------------------------------------
 SCF time:   CPU 28.67s  wall 29.00s 
 SCF   energy in the final basis set =     -906.2669600520
 Total energy in the final basis set =     -906.2669600520
 
 --------------------------------------------------------------
 
                    Orbital Energies (a.u.)
 --------------------------------------------------------------
 
 Alpha MOs
 -- Occupied --
-88.9122 -24.7413 -24.7332 -10.3538 -10.2129 -10.2109 -10.2074 -10.2014
-10.2014 -10.1991 -10.1853  -7.9740  -5.9379  -5.9341  -5.9315  -1.2824
 -1.2226  -0.8954  -0.8096  -0.7958  -0.7236  -0.7211  -0.6382  -0.6031
 -0.5852  -0.5751  -0.5430  -0.5174  -0.5166  -0.4819  -0.4519  -0.4423
 -0.4393  -0.4282  -0.4132  -0.4034  -0.3962  -0.3857  -0.3632  -0.3475
 -0.3000  -0.2967  -0.2277  -0.2177
 -- Virtual --
 -0.0286  -0.0113   0.0282   0.0518   0.1017   0.1073   0.1164   0.1288
  0.1357   0.1524   0.1594   0.1678   0.2008   0.2105   0.2524   0.2894
  0.3029   0.3240   0.3512   0.3637   0.3735   0.3887   0.4253   0.4326
  0.4539   0.4906   0.5012   0.5151   0.5283   0.5383   0.5718   0.5777
  0.5864   0.5903   0.5998   0.6191   0.6398   0.6695   0.6864   0.7132
  0.7319   0.7658   0.7835   0.7912   0.8149   0.8269   0.8454   0.8533
  0.8631   0.8713   0.8820   0.9255   0.9427   0.9492   0.9819   1.0004
  1.0146   1.0472   1.0698   1.0775   1.0970   1.1137   1.1426   1.1746
  1.1788   1.1921   1.2146   1.2302   1.2922   1.3302   1.3406   1.3775
  1.4003   1.4234   1.4345   1.4504   1.4790   1.5067   1.5384   1.5719
  1.6625   1.6790   1.7146   1.7351   1.7592   1.7945   1.8050   1.8199
  1.8385   1.8585   1.8796   1.9027   1.9343   1.9747   1.9859   1.9941
  2.0140   2.0318   2.0471   2.1015   2.1270   2.1681   2.1766   2.2175
  2.2446   2.2750   2.3086   2.3445   2.3629   2.4133   2.4464   2.4922
  2.5079   2.5512   2.5668   2.6263   2.6799   2.7157   2.7608   2.7882
  2.8484   3.0043   3.0591   3.0891   3.2334   3.3160   3.9486   4.0877
  4.1072   4.1117   4.1581   4.2578   4.2930   4.3989   4.6415   4.7849
  5.2582
 --------------------------------------------------------------
 
          Ground-State Mulliken Net Atomic Charges

     Atom                 Charge (a.u.)
  ----------------------------------------
      1 C                    -0.347692
      2 C                    -0.119821
      3 C                     0.128125
      4 C                    -0.407774
      5 S                     0.275336
      6 C                    -0.418770
      7 C                     0.164060
      8 C                    -0.298097
      9 C                     0.545070
     10 F                    -0.240252
     11 F                    -0.248442
     12 H                     0.146133
     13 H                     0.157121
     14 H                     0.138274
     15 H                     0.173384
     16 H                     0.179499
     17 H                     0.173846
  ----------------------------------------
  Sum of atomic charges =     0.000000

 -----------------------------------------------------------------
                    Cartesian Multipole Moments
 -----------------------------------------------------------------
    Charge (ESU x 10^10)
                 0.0000
    Dipole Moment (Debye)
         X      -0.9558      Y      -0.8826      Z      -0.2351
       Tot       1.3221
    Quadrupole Moments (Debye-Ang)
        XX     -67.6507     XY       1.5758     YY     -63.9202
        XZ       0.7721     YZ       0.1448     ZZ     -70.6138
    Octopole Moments (Debye-Ang^2)
       XXX      11.1514    XXY      -3.2952    XYY      14.7232
       YYY       4.4719    XXZ      -0.9028    XYZ      -3.9301
       YYZ      -0.2902    XZZ      19.9026    YZZ       3.7774
       ZZZ       2.3099
    Hexadecapole Moments (Debye-Ang^3)
      XXXX   -1517.6437   XXXY      32.9321   XXYY    -430.2951
      XYYY      27.7707   YYYY    -940.4110   XXXZ       7.3289
      XXYZ       6.1428   XYYZ       6.2015   YYYZ       4.7901
      XXZZ    -279.8484   XYZZ       5.1441   YYZZ    -194.0329
      XZZZ       3.4679   YZZZ       7.9489   ZZZZ    -101.0669
 -----------------------------------------------------------------
 Total job time:  29.49s(wall), 28.99s(cpu) 
 Fri Aug 12 13:13:47 2022

        *************************************************************
        *                                                           *
        *  Thank you very much for using Q-Chem.  Have a nice day.  *
        *                                                           *
        *************************************************************


