23
 energy: -43.263106400670 gnorm: 0.000041316305 xtb: 6.4.1 (23d549d)
C        -4.81722167030000    1.94939505750000    0.08578564180000
C        -4.50808569890000    0.66468796410000   -0.04025395770000
C        -3.16902697060000    0.08391688460000   -0.02728915240000
C        -3.05858437460000   -1.32065405530000   -0.00833059020000
C        -1.84461577540000   -1.97155526950000    0.01105501020000
C        -0.70542130670000   -1.18209738210000    0.00648152230000
O         0.58348966590000   -1.58491987520000    0.02012923930000
C         1.34736956690000   -0.45245262910000    0.00371781960000
C         2.77236398070000   -0.64553807950000    0.01589743460000
C         3.68190983220000    0.32066003570000    0.00397921560000
F         3.44451640410000    1.62598607750000   -0.02149862200000
F         4.99196800530000    0.10639777640000    0.01629649210000
C         0.57232224830000    0.67371916850000   -0.02119150190000
C        -0.77986165280000    0.22733475710000   -0.01925031590000
C        -2.01868520690000    0.86020885770000   -0.03649557430000
H        -5.84080363840000    2.28182704100000    0.06686276230000
H        -4.07600366130000    2.71865929740000    0.21744905750000
H        -5.30874193260000   -0.05576962710000   -0.15493883800000
H        -3.96558078580000   -1.90743021750000   -0.00511328530000
H        -1.77607004330000   -3.04737014400000    0.02755542250000
H         3.12187582590000   -1.66571751300000    0.03689170770000
H         0.91786686220000    1.68640778410000   -0.03779901230000
H        -2.06941009540000    1.93646952610000   -0.06380134230000
