
Running Job 1 of 1 fragments/B016/conf-0/spe_input.inp
qchem fragments/B016/conf-0/spe_input.inp_150421.0 /gpfs/fs0/scratch/a/aspuru/rhickman/descriptor_computation/qchem150421/ 0
/scinet/niagara/software/commercial/qc52/exe/qcprog.exe_s fragments/B016/conf-0/spe_input.inp_150421.0 /gpfs/fs0/scratch/a/aspuru/rhickman/descriptor_computation/qchem150421/
                  Welcome to Q-Chem
     A Quantum Leap Into The Future Of Chemistry


 Q-Chem 5.2, Q-Chem, Inc., Pleasanton, CA (2019)

 License issued to: SRG Alan Aspuru-Guzik, University of Toronto

 Yihan Shao,  Zhengting Gan,  E. Epifanovsky,  A. T. B. Gilbert,  M. Wormit,  
 J. Kussmann,  A. W. Lange,  A. Behn,  Jia Deng,  Xintian Feng,  D. Ghosh,  
 M. Goldey,  P. R. Horn,  L. D. Jacobson,  I. Kaliman,  T. Kus,  A. Landau,  
 Jie Liu,  E. I. Proynov,  R. M. Richard,  R. P. Steele,  E. J. Sundstrom,  
 H. L. Woodcock III,  P. M. Zimmerman,  D. Zuev,  B. Albrecht,  E. Alguire,  
 S. A. Baeppler,  D. Barton,  Z. Benda,  Y. A. Bernard,  E. J. Berquist,  
 K. B. Bravaya,  H. Burton,  D. Casanova,  Chun-Min Chang,  Yunqing Chen,  
 A. Chien,  K. D. Closser,  M. P. Coons,  S. Coriani,  S. Dasgupta,  
 A. L. Dempwolff,  M. Diedenhofen,  Hainam Do,  R. G. Edgar,  Po-Tung Fang,  
 S. Faraji,  S. Fatehi,  Qingguo Feng,  K. D. Fenk,  J. Fosso-Tande,  
 J. Gayvert,  Qinghui Ge,  A. Ghysels,  G. Gidofalvi,  J. Gomes,  
 J. Gonthier,  A. Gunina,  D. Hait,  M. W. D. Hanson-Heine,  
 P. H. P. Harbach,  A. W. Hauser,  M. F. Herbst,  J. E. Herr,  
 E. G. Hohenstein,  Z. C. Holden,  Kerwin Hui,  B. C. Huynh,  T.-C. Jagau,  
 Hyunjun Ji,  B. Kaduk,  K. Khistyaev,  Jaehoon Kim,  P. Klunzinger,  K. Koh,  
 D. Kosenkov,  L. Koulias,  T. Kowalczyk,  C. M. Krauter,  A. Kunitsa,  
 Ka Un Lao,  A. Laurent,  K. V. Lawler,  Joonho Lee,  D. Lefrancois,  
 S. Lehtola,  D. S. Levine,  Yi-Pei Li,  You-Sheng Lin,  Fenglai Liu,  
 E. Livshits,  A. Luenser,  P. Manohar,  E. Mansoor,  S. F. Manzer,  
 Shan-Ping Mao,  Yuezhi Mao,  N. Mardirossian,  A. V. Marenich,  
 T. Markovich,  L. A. Martinez-Martinez,  S. A. Maurer,  N. J. Mayhall,  
 S. C. McKenzie,  J.-M. Mewes,  P. Morgante,  A. F. Morrison,  
 J. W. Mullinax,  K. Nanda,  T. S. Nguyen-Beck,  R. Olivares-Amaya,  
 J. A. Parkhill,  Zheng Pei,  T. M. Perrine,  F. Plasser,  P. Pokhilko,  
 S. Prager,  A. Prociuk,  E. Ramos,  D. R. Rehn,  F. Rob,  M. Scheurer,  
 M. Schneider,  N. Sergueev,  S. M. Sharada,  S. Sharma,  D. W. Small,  
 T. Stauch,  T. Stein,  Yu-Chuan Su,  A. J. W. Thom,  A. Tkatchenko,  
 T. Tsuchimochi,  N. M. Tubman,  L. Vogt,  M. L. Vidal,  O. Vydrov,  
 M. A. Watson,  J. Wenzel,  M. de Wergifosse,  T. A. Wesolowski,  A. White,  
 J. Witte,  A. Yamada,  Jun Yang,  K. Yao,  S. Yeganeh,  S. R. Yost,  
 Zhi-Qiang You,  A. Zech,  Igor Ying Zhang,  Xing Zhang,  Yan Zhao,  
 Ying Zhu,  B. R. Brooks,  G. K. L. Chan,  C. J. Cramer,  M. S. Gordon,  
 W. J. Hehre,  A. Klamt,  M. W. Schmidt,  C. D. Sherrill,  D. G. Truhlar,  
 A. Aspuru-Guzik,  R. Baer,  A. T. Bell,  N. A. Besley,  Jeng-Da Chai,  
 A. E. DePrince, III,  R. A. DiStasio Jr.,  A. Dreuw,  B. D. Dunietz,  
 T. R. Furlani,  Chao-Ping Hsu,  Yousung Jung,  Jing Kong,  D. S. Lambrecht,  
 WanZhen Liang,  C. Ochsenfeld,  V. A. Rassolov,  L. V. Slipchenko,  
 J. E. Subotnik,  T. Van Voorhis,  J. M. Herbert,  A. I. Krylov,  
 P. M. W. Gill,  M. Head-Gordon

 Contributors to earlier versions of Q-Chem not listed above: 
 R. D. Adamson,  B. Austin,  J. Baker,  G. J. O. Beran,  K. Brandhorst,  
 S. T. Brown,  E. F. C. Byrd,  A. K. Chakraborty,  C.-L. Cheng,  
 Siu Hung Chien,  D. M. Chipman,  D. L. Crittenden,  H. Dachsel,  
 R. J. Doerksen,  A. D. Dutoi,  L. Fusti-Molnar,  W. A. Goddard III,  
 A. Golubeva-Zadorozhnaya,  S. R. Gwaltney,  G. Hawkins,  A. Heyden,  
 S. Hirata,  G. Kedziora,  F. J. Keil,  C. Kelley,  Jihan Kim,  R. A. King,  
 R. Z. Khaliullin,  P. P. Korambath,  W. Kurlancheek,  A. M. Lee,  M. S. Lee,  
 S. V. Levchenko,  Ching Yeh Lin,  D. Liotard,  R. C. Lochan,  I. Lotan,  
 P. E. Maslen,  N. Nair,  D. P. O'Neill,  D. Neuhauser,  E. Neuscamman,  
 C. M. Oana,  R. Olson,  B. Peters,  R. Peverati,  P. A. Pieniazek,  
 Y. M. Rhee,  J. Ritchie,  M. A. Rohrdanz,  E. Rosta,  N. J. Russ,  
 H. F. Schaefer III,  N. E. Schultz,  N. Shenvi,  A. C. Simmonett,  A. Sodt,  
 D. Stuck,  K. S. Thanthiriwatte,  V. Vanovschi,  Tao Wang,  A. Warshel,  
 C. F. Williams,  Q. Wu,  X. Xu,  W. Zhang

 Please cite Q-Chem as follows:
 Y. Shao et al., Mol. Phys. 113, 184-215 (2015)
 DOI: 10.1080/00268976.2014.952696

 Q-Chem 5.2.1 for Intel X86 EM64T Linux

 Parts of Q-Chem use Armadillo 8.300.2 (Tropical Shenanigans).
 http://arma.sourceforge.net/

 Q-Chem begins on Mon Feb  7 17:39:07 2022  

Host: 
0

     Scratch files written to /gpfs/fs0/scratch/a/aspuru/rhickman/descriptor_computation/qchem150421//
 Jul1719 |scratch|qcdevops|jenkins|workspace|build_RNUM -1
Processing $rem in /scinet/niagara/software/commercial/qc52/config/preferences:
	 MEM_TOTAL  4000 
NAlpha2: 102
NElect   102
Mult     1

Checking the input file for inconsistencies... 	...done.

--------------------------------------------------------------
User input:
--------------------------------------------------------------
$molecule
0 1
C        -0.01233448470000    3.84576229680000   -0.05389456650000
C        -1.00339682590000    2.96725752520000    0.03524688110000
C        -0.88206360490000    1.51287761660000    0.02299888300000
C        -2.05009970900000    0.74835012010000    0.01461093230000
C        -1.97084582320000   -0.63213392150000   -0.00022965720000
Cl       -3.42544507810000   -1.56897126290000   -0.01271543640000
C        -0.74933907140000   -1.27893897930000   -0.00410086030000
C         0.42935649330000   -0.52871047710000    0.00760800040000
C         1.68959675660000   -1.25709114650000    0.00521890290000
C         2.92268589490000   -0.77274207790000    0.00016001200000
F         3.30307231490000    0.49849513080000   -0.00381604970000
F         4.00574876370000   -1.54495964000000   -0.00261857650000
C         0.34929620350000    0.86110080040000    0.02198241680000
H        -0.20506010200000    4.90459329460000   -0.03851177710000
H         1.02025237010000    3.55774743270000   -0.14850089270000
H        -2.02013696050000    3.33000650100000    0.11833033900000
H        -3.01518047960000    1.23112716340000    0.01727957410000
H        -0.71020919670000   -2.35670137880000   -0.01473556670000
H         1.62228134600000   -2.33528022150000    0.00572893400000
H         1.25048442610000    1.44823276020000    0.03787840740000
$end

$rem
BASIS = 6-31G*
GUI = 2
METHOD = B3LYP
PRINT_ORBITALS false
MOLDEN_FORMAT false
--------------------------------------------------------------
 ----------------------------------------------------------------
             Standard Nuclear Orientation (Angstroms)
    I     Atom           X                Y                Z
 ----------------------------------------------------------------
    1      C      -0.0660439931    -3.7816549689     0.0523621320
    2      C      -1.0395123558    -2.8836245639    -0.0360806965
    3      C      -0.8893451912    -1.4319432235    -0.0232826076
    4      C      -2.0419809184    -0.6443970079    -0.0141815235
    5      C      -1.9353499674     0.7342367569     0.0011935677
    6      Cl     -3.3710725647     1.6997423345     0.0145612295
    7      C      -0.7012503093     1.3566793276     0.0049075671
    8      C       0.4623253444     0.5832191912    -0.0075122764
    9      C       1.7367687842     1.2864534885    -0.0052605169
   10      C       2.9600077694     0.7777343809    -0.0008231339
   11      F       3.3151003251    -0.5008006718     0.0025046822
   12      F       4.0581785153     1.5283118091     0.0018969366
   13      C       0.3547032601    -0.8047241676    -0.0224247127
   14      H      -0.2797431835    -4.8364476277     0.0366147908
   15      H       0.9720853458    -3.5142214923     0.1467302560
   16      H      -2.0632768862    -3.2260965879    -0.1189618207
   17      H      -3.0164504920    -1.1079316057    -0.0167144679
   18      H      -0.6407426347     2.4334488180     0.0159673945
   19      H       1.6908568495     2.3657659539    -0.0053086155
   20      H       1.2440605010    -1.4096126616    -0.0388698019
 ----------------------------------------------------------------
 Molecular Point Group                 C1    NOp =  1
 Largest Abelian Subgroup              C1    NOp =  1
 Nuclear Repulsion Energy =         807.86146540 hartrees
 There are       51 alpha and       51 beta electrons
 Requested basis set is 6-31G(d)
 There are 67 shells and 213 basis functions

 Total QAlloc Memory Limit   4000 MB
 Mega-Array Size       188 MB
 MEM_STATIC part       192 MB
 A cutoff of  1.0D-08 yielded   1527 shell pairs
 There are     16181 function pairs
 Smallest overlap matrix eigenvalue = 3.73E-04

 Scale SEOQF with 1.000000e-01/1.000000e-01/1.000000e+00

 Standard Electronic Orientation quadrupole field applied
 Nucleus-field energy     =     0.0000000438 hartrees
 Guess from superposition of atomic densities
 Warning:  Energy on first SCF cycle will be non-variational
 SAD guess density has 102.000000 electrons

 -----------------------------------------------------------------------
  General SCF calculation program by
  Eric Jon Sundstrom, Paul Horn, Yuezhi Mao, Dmitri Zuev, Alec White,
  David Stuck, Shaama M.S., Shane Yost, Joonho Lee, David Small,
  Daniel Levine, Susi Lehtola, Hugh Burton, Evgeny Epifanovsky,
  Bang C. Huynh
 -----------------------------------------------------------------------
 Exchange:     0.2000 Hartree-Fock + 0.0800 Slater + 0.7200 B88
 Correlation:  0.1900 VWN1RPA + 0.8100 LYP
 Using SG-1 standard quadrature grid
 A restricted SCF calculation will be
 performed using DIIS
 SCF converges when DIIS error is below 1.0e-05
 ---------------------------------------
  Cycle       Energy         DIIS error
 ---------------------------------------
    1   -1048.0171969018      5.34e-02  
    2   -1044.9105755220      5.84e-03  
    3   -1044.7179600853      8.18e-03  
    4   -1045.0978338630      1.46e-03  
    5   -1045.1096044572      4.78e-04  
    6   -1045.1106534379      2.23e-04  
    7   -1045.1109409882      4.73e-05  
    8   -1045.1109520797      1.89e-05  
    9   -1045.1109540332      6.69e-06  Convergence criterion met
 ---------------------------------------
 SCF time:   CPU 28.25s  wall 28.00s 
 SCF   energy in the final basis set =    -1045.1109540332
 Total energy in the final basis set =    -1045.1109540332
 
 --------------------------------------------------------------
 
                    Orbital Energies (a.u.)
 --------------------------------------------------------------
 
 Alpha MOs
 -- Occupied --
******** -24.7530 -24.7421 -10.3661 -10.2534 -10.2201 -10.2115 -10.2099
-10.2042 -10.2017 -10.1990 -10.1959 -10.1890  -9.4678  -7.2317  -7.2222
 -7.2216  -1.2944  -1.2330  -0.9035  -0.8575  -0.8240  -0.7848  -0.7460
 -0.7317  -0.6577  -0.6406  -0.6153  -0.5839  -0.5602  -0.5374  -0.5275
 -0.5153  -0.4868  -0.4733  -0.4489  -0.4483  -0.4456  -0.4382  -0.4248
 -0.4150  -0.4091  -0.3905  -0.3638  -0.3577  -0.3525  -0.3284  -0.3153
 -0.2783  -0.2362  -0.2306
 -- Virtual --
 -0.0432  -0.0368   0.0348   0.0379   0.0730   0.0914   0.1114   0.1134
  0.1455   0.1552   0.1633   0.1729   0.1776   0.2004   0.2300   0.2507
  0.2820   0.2936   0.3176   0.3320   0.3612   0.3994   0.4007   0.4114
  0.4345   0.4403   0.4608   0.4746   0.4889   0.5128   0.5190   0.5318
  0.5380   0.5481   0.5605   0.5643   0.5750   0.5799   0.5901   0.5952
  0.6101   0.6163   0.6241   0.6307   0.6783   0.6892   0.6983   0.7363
  0.7542   0.7765   0.7772   0.8166   0.8189   0.8237   0.8465   0.8699
  0.8708   0.8773   0.8823   0.9209   0.9217   0.9442   0.9548   0.9680
  0.9809   1.0172   1.0395   1.0607   1.0918   1.1120   1.1302   1.1524
  1.1578   1.1663   1.1982   1.2059   1.2305   1.2402   1.2549   1.2781
  1.3075   1.3329   1.3661   1.3955   1.4053   1.4318   1.4419   1.4577
  1.4675   1.4722   1.4823   1.5041   1.5195   1.5451   1.5991   1.6511
  1.6690   1.7175   1.7663   1.7742   1.7836   1.8083   1.8251   1.8291
  1.8581   1.8679   1.8875   1.9425   1.9594   1.9694   1.9780   1.9899
  2.0089   2.0164   2.0199   2.0458   2.1160   2.1273   2.1508   2.1596
  2.1682   2.2254   2.2321   2.2537   2.2733   2.2994   2.3360   2.3525
  2.4177   2.4997   2.5082   2.5179   2.5731   2.6170   2.6252   2.6362
  2.6671   2.6851   2.7464   2.7988   2.8321   2.8617   2.9150   2.9499
  3.0525   3.1144   3.1753   3.3117   3.4386   4.0617   4.0703   4.0826
  4.1172   4.1483   4.2303   4.2422   4.2795   4.4109   4.4801   4.7208
  4.8089   5.3001
 --------------------------------------------------------------
 
          Ground-State Mulliken Net Atomic Charges

     Atom                 Charge (a.u.)
  ----------------------------------------
      1 C                    -0.348888
      2 C                    -0.115165
      3 C                     0.182938
      4 C                    -0.202352
      5 C                    -0.067871
      6 Cl                   -0.013432
      7 C                    -0.198593
      8 C                     0.201683
      9 C                    -0.300144
     10 C                     0.550532
     11 F                    -0.231130
     12 F                    -0.244245
     13 C                    -0.252648
     14 H                     0.149899
     15 H                     0.150343
     16 H                     0.132903
     17 H                     0.150377
     18 H                     0.150285
     19 H                     0.164711
     20 H                     0.140796
  ----------------------------------------
  Sum of atomic charges =     0.000000

 -----------------------------------------------------------------
                    Cartesian Multipole Moments
 -----------------------------------------------------------------
    Charge (ESU x 10^10)
                 0.0000
    Dipole Moment (Debye)
         X       0.6122      Y      -0.7518      Z      -0.0122
       Tot       0.9696
    Quadrupole Moments (Debye-Ang)
        XX     -83.4764     XY       3.6680     YY     -72.7806
        XZ       0.2332     YZ       0.0288     ZZ     -82.4095
    Octopole Moments (Debye-Ang^2)
       XXX      31.7093    XXY     -13.5574    XYY      14.5970
       YYY       2.1150    XXZ      -0.2967    XYZ      -0.8047
       YYZ       0.1279    XZZ      18.7534    YZZ       8.7863
       ZZZ       0.1277
    Hexadecapole Moments (Debye-Ang^3)
      XXXX   -2571.8077   XXXY      18.6098   XXYY    -669.4755
      XYYY      25.2700   YYYY   -1439.4821   XXXZ       0.6441
      XXYZ       0.9355   XYYZ       2.5902   YYYZ      -0.2115
      XXZZ    -431.0212   XYZZ       2.0986   YYZZ    -298.3682
      XZZZ       0.0436   YZZZ       0.3115   ZZZZ     -81.3400
 -----------------------------------------------------------------
Archival summary:
1\1\nia1977.scinet.local\SP\ProcedureUnspecified\6-31G*\l12107\rhickman\MonFeb717:39:352022MonFeb717:39:352022\0\\#,ProcedureUnspecified,6-31G*,\\0,1\Cl\C,1,1.73023\C,2,1.38219,1,119.312\H,3,1.07852,2,119.981,1,-0.00461317,0\C,2,1.38284,1,119.5,3,-179.944,0\H,5,1.0791,2,119.862,1,-0.0624992,0\C,5,1.39602,2,119.922,1,-179.916,0\C,7,1.39322,5,118.9,2,-0.273554,0\H,8,1.07569,7,119.018,5,-179.425,0\C,8,1.39219,7,121.188,5,0.24993,0\C,10,1.45559,8,123.323,7,179.967,0\H,11,1.08029,10,116.454,8,179.277,0\C,11,1.32481,10,128.529,8,-0.850963,0\F,13,1.32693,11,128.103,10,0.00739664,0\F,13,1.33017,11,123.067,10,-179.946,0\C,7,1.45948,5,118.439,2,179.849,0\H,16,1.08271,7,114.367,5,4.74513,0\C,16,1.32737,7,126.647,5,-174.708,0\H,18,1.07617,16,123.037,7,0.0443831,0\H,18,1.07634,16,121.093,7,179.814,0\\\@

 Total job time:  28.52s(wall), 28.42s(cpu) 
 Mon Feb  7 17:39:35 2022

        *************************************************************
        *                                                           *
        *  Thank you very much for using Q-Chem.  Have a nice day.  *
        *                                                           *
        *************************************************************


