24
 energy: -38.035037165875 gnorm: 0.000149751395 xtb: 6.4.1 (23d549d)
C         3.63426133610000    1.58307965720000   -0.34220990650000
C         2.53469804690000    1.64274725940000    0.39650628070000
C         1.36146514760000    0.79791280090000    0.24793523660000
C         0.05403663930000    1.28203382060000    0.42392971650000
C        -0.82556399360000    0.26136916060000    0.10937572700000
C        -2.27594680080000    0.25431177910000    0.12286789420000
O        -2.98000724410000    1.18474848330000    0.43225656430000
O        -2.75607414730000   -0.95554269230000   -0.26877233500000
C        -4.16614517730000   -1.10993699170000   -0.30347779630000
N        -0.07870264830000   -0.82470522220000   -0.24279955980000
C         1.24706324980000   -0.54102330190000   -0.15456422770000
C         2.20231257890000   -1.59832307780000   -0.38862538970000
C         3.45065439100000   -1.65116094530000    0.06429775880000
H         4.44577560920000    2.27601223190000   -0.19976646950000
H         3.75910230440000    0.84840448060000   -1.11951080010000
H         2.42742206560000    2.42509497100000    1.13804792710000
H        -0.22497137480000    2.27162097240000    0.72544622830000
H        -4.43380632810000   -1.53413708300000   -1.27089222140000
H        -4.64669028650000   -0.13916592930000   -0.16731288410000
H        -4.46937524830000   -1.78705375930000    0.49688733360000
H        -0.47262384140000   -1.71888017820000   -0.48787936290000
H         1.80495918570000   -2.43747595130000   -0.94986461170000
H         3.87493543870000   -0.85843300060000    0.65420820480000
H         4.08153182090000   -2.49908680390000   -0.13813394970000
