
Running Job 1 of 1 fragments/C047/conf-4/spe_input.inp
qchem fragments/C047/conf-4/spe_input.inp_324473.0 /gpfs/fs0/scratch/a/aspuru/rhickman/descriptor_computation/qchem324473/ 0
/scinet/niagara/software/commercial/qc52/exe/qcprog.exe_s fragments/C047/conf-4/spe_input.inp_324473.0 /gpfs/fs0/scratch/a/aspuru/rhickman/descriptor_computation/qchem324473/
                  Welcome to Q-Chem
     A Quantum Leap Into The Future Of Chemistry


 Q-Chem 5.2, Q-Chem, Inc., Pleasanton, CA (2019)

 License issued to: SRG Alan Aspuru-Guzik, University of Toronto

 Yihan Shao,  Zhengting Gan,  E. Epifanovsky,  A. T. B. Gilbert,  M. Wormit,  
 J. Kussmann,  A. W. Lange,  A. Behn,  Jia Deng,  Xintian Feng,  D. Ghosh,  
 M. Goldey,  P. R. Horn,  L. D. Jacobson,  I. Kaliman,  T. Kus,  A. Landau,  
 Jie Liu,  E. I. Proynov,  R. M. Richard,  R. P. Steele,  E. J. Sundstrom,  
 H. L. Woodcock III,  P. M. Zimmerman,  D. Zuev,  B. Albrecht,  E. Alguire,  
 S. A. Baeppler,  D. Barton,  Z. Benda,  Y. A. Bernard,  E. J. Berquist,  
 K. B. Bravaya,  H. Burton,  D. Casanova,  Chun-Min Chang,  Yunqing Chen,  
 A. Chien,  K. D. Closser,  M. P. Coons,  S. Coriani,  S. Dasgupta,  
 A. L. Dempwolff,  M. Diedenhofen,  Hainam Do,  R. G. Edgar,  Po-Tung Fang,  
 S. Faraji,  S. Fatehi,  Qingguo Feng,  K. D. Fenk,  J. Fosso-Tande,  
 J. Gayvert,  Qinghui Ge,  A. Ghysels,  G. Gidofalvi,  J. Gomes,  
 J. Gonthier,  A. Gunina,  D. Hait,  M. W. D. Hanson-Heine,  
 P. H. P. Harbach,  A. W. Hauser,  M. F. Herbst,  J. E. Herr,  
 E. G. Hohenstein,  Z. C. Holden,  Kerwin Hui,  B. C. Huynh,  T.-C. Jagau,  
 Hyunjun Ji,  B. Kaduk,  K. Khistyaev,  Jaehoon Kim,  P. Klunzinger,  K. Koh,  
 D. Kosenkov,  L. Koulias,  T. Kowalczyk,  C. M. Krauter,  A. Kunitsa,  
 Ka Un Lao,  A. Laurent,  K. V. Lawler,  Joonho Lee,  D. Lefrancois,  
 S. Lehtola,  D. S. Levine,  Yi-Pei Li,  You-Sheng Lin,  Fenglai Liu,  
 E. Livshits,  A. Luenser,  P. Manohar,  E. Mansoor,  S. F. Manzer,  
 Shan-Ping Mao,  Yuezhi Mao,  N. Mardirossian,  A. V. Marenich,  
 T. Markovich,  L. A. Martinez-Martinez,  S. A. Maurer,  N. J. Mayhall,  
 S. C. McKenzie,  J.-M. Mewes,  P. Morgante,  A. F. Morrison,  
 J. W. Mullinax,  K. Nanda,  T. S. Nguyen-Beck,  R. Olivares-Amaya,  
 J. A. Parkhill,  Zheng Pei,  T. M. Perrine,  F. Plasser,  P. Pokhilko,  
 S. Prager,  A. Prociuk,  E. Ramos,  D. R. Rehn,  F. Rob,  M. Scheurer,  
 M. Schneider,  N. Sergueev,  S. M. Sharada,  S. Sharma,  D. W. Small,  
 T. Stauch,  T. Stein,  Yu-Chuan Su,  A. J. W. Thom,  A. Tkatchenko,  
 T. Tsuchimochi,  N. M. Tubman,  L. Vogt,  M. L. Vidal,  O. Vydrov,  
 M. A. Watson,  J. Wenzel,  M. de Wergifosse,  T. A. Wesolowski,  A. White,  
 J. Witte,  A. Yamada,  Jun Yang,  K. Yao,  S. Yeganeh,  S. R. Yost,  
 Zhi-Qiang You,  A. Zech,  Igor Ying Zhang,  Xing Zhang,  Yan Zhao,  
 Ying Zhu,  B. R. Brooks,  G. K. L. Chan,  C. J. Cramer,  M. S. Gordon,  
 W. J. Hehre,  A. Klamt,  M. W. Schmidt,  C. D. Sherrill,  D. G. Truhlar,  
 A. Aspuru-Guzik,  R. Baer,  A. T. Bell,  N. A. Besley,  Jeng-Da Chai,  
 A. E. DePrince, III,  R. A. DiStasio Jr.,  A. Dreuw,  B. D. Dunietz,  
 T. R. Furlani,  Chao-Ping Hsu,  Yousung Jung,  Jing Kong,  D. S. Lambrecht,  
 WanZhen Liang,  C. Ochsenfeld,  V. A. Rassolov,  L. V. Slipchenko,  
 J. E. Subotnik,  T. Van Voorhis,  J. M. Herbert,  A. I. Krylov,  
 P. M. W. Gill,  M. Head-Gordon

 Contributors to earlier versions of Q-Chem not listed above: 
 R. D. Adamson,  B. Austin,  J. Baker,  G. J. O. Beran,  K. Brandhorst,  
 S. T. Brown,  E. F. C. Byrd,  A. K. Chakraborty,  C.-L. Cheng,  
 Siu Hung Chien,  D. M. Chipman,  D. L. Crittenden,  H. Dachsel,  
 R. J. Doerksen,  A. D. Dutoi,  L. Fusti-Molnar,  W. A. Goddard III,  
 A. Golubeva-Zadorozhnaya,  S. R. Gwaltney,  G. Hawkins,  A. Heyden,  
 S. Hirata,  G. Kedziora,  F. J. Keil,  C. Kelley,  Jihan Kim,  R. A. King,  
 R. Z. Khaliullin,  P. P. Korambath,  W. Kurlancheek,  A. M. Lee,  M. S. Lee,  
 S. V. Levchenko,  Ching Yeh Lin,  D. Liotard,  R. C. Lochan,  I. Lotan,  
 P. E. Maslen,  N. Nair,  D. P. O'Neill,  D. Neuhauser,  E. Neuscamman,  
 C. M. Oana,  R. Olson,  B. Peters,  R. Peverati,  P. A. Pieniazek,  
 Y. M. Rhee,  J. Ritchie,  M. A. Rohrdanz,  E. Rosta,  N. J. Russ,  
 H. F. Schaefer III,  N. E. Schultz,  N. Shenvi,  A. C. Simmonett,  A. Sodt,  
 D. Stuck,  K. S. Thanthiriwatte,  V. Vanovschi,  Tao Wang,  A. Warshel,  
 C. F. Williams,  Q. Wu,  X. Xu,  W. Zhang

 Please cite Q-Chem as follows:
 Y. Shao et al., Mol. Phys. 113, 184-215 (2015)
 DOI: 10.1080/00268976.2014.952696

 Q-Chem 5.2.1 for Intel X86 EM64T Linux

 Parts of Q-Chem use Armadillo 8.300.2 (Tropical Shenanigans).
 http://arma.sourceforge.net/

 Q-Chem begins on Tue Feb  8 14:37:26 2022  

Host: 
0

     Scratch files written to /gpfs/fs0/scratch/a/aspuru/rhickman/descriptor_computation/qchem324473//
 Jul1719 |scratch|qcdevops|jenkins|workspace|build_RNUM -1
Processing $rem in /scinet/niagara/software/commercial/qc52/config/preferences:
	 MEM_TOTAL  4000 
NAlpha2: 110
NElect   110
Mult     1

Checking the input file for inconsistencies... 	...done.

--------------------------------------------------------------
User input:
--------------------------------------------------------------
$molecule
0 1
C        -4.27606760500000   -1.63842148270000    0.47441833110000
C        -3.68845608030000   -0.59694879030000   -0.09880716080000
C        -2.25305975740000   -0.31665679550000   -0.04138667190000
C        -1.33540211120000   -1.36131749220000   -0.03345736780000
C         0.03091990690000   -1.13924417390000   -0.02329372550000
C         0.48541731290000    0.16722210830000   -0.02367528680000
O         1.84711549000000    0.53670652840000   -0.01437831990000
C         2.78519180310000   -0.37935919450000    0.05567483320000
F         2.72146142990000   -1.16199585090000    1.14948295760000
F         2.81551271170000   -1.22978490640000   -0.98845799230000
F         3.97214019890000    0.21994992320000    0.08738678220000
C        -0.40232943320000    1.22902477660000   -0.03128935750000
C        -1.77415223700000    1.00739739490000   -0.04066109860000
C        -2.69699007270000    2.14300755940000   -0.00200020350000
C        -2.46978452610000    3.31679133660000   -0.57532237600000
H        -5.33670088770000   -1.80288654610000    0.39295571500000
H        -3.72689154160000   -2.35442625610000    1.06264957900000
H        -4.28356560120000    0.11427284000000   -0.65608705090000
H        -1.69518787800000   -2.37807505460000   -0.05822846140000
H         0.70447181110000   -1.98077010910000   -0.02002719600000
H        -0.00716153610000    2.23107693730000   -0.00634168440000
H        -3.61996498170000    1.97842015220000    0.53769302030000
H        -1.57820554270000    3.51172475630000   -1.14744306020000
H        -3.17988345000000    4.12310705320000   -0.51001503560000
$end

$rem
BASIS = 6-31G*
GUI = 2
METHOD = B3LYP
PRINT_ORBITALS false
MOLDEN_FORMAT false
--------------------------------------------------------------
 ----------------------------------------------------------------
             Standard Nuclear Orientation (Angstroms)
    I     Atom           X                Y                Z
 ----------------------------------------------------------------
    1      C       3.8373767197    -2.2974507859    -0.2429059319
    2      C       3.4151783806    -1.1190052272     0.1947637670
    3      C       2.0357328953    -0.6402629826     0.0939702408
    4      C       0.9749730886    -1.5320705868     0.2077341656
    5      C      -0.3441320833    -1.1148510228     0.1614189817
    6      C      -0.6023996340     0.2343535244    -0.0009606545
    7      O      -1.8953368020     0.7957045052    -0.0644086786
    8      C      -2.9581739360     0.0255523971    -0.0281598287
    9      F      -3.0222205689    -0.8854145201    -1.0176219118
   10      F      -3.1007655860    -0.6775126349     1.1118944631
   11      F      -4.0448605629     0.7841361741    -0.1407936995
   12      C       0.4312800053     1.1473383382    -0.1173320371
   13      C       1.7558825663     0.7296529159    -0.0718207813
   14      C       2.8345515078     1.7042997896    -0.2429101370
   15      C       2.7882254710     2.9597606979     0.1810719797
   16      H       4.8633573234    -2.6045776695    -0.1349024438
   17      H       3.1825993557    -2.9914478827    -0.7428137419
   18      H       4.1143373217    -0.4402161169     0.6648430624
   19      H       1.1822633297    -2.5799240681     0.3590258820
   20      H      -1.1336363111    -1.8425001995     0.2565950677
   21      H       0.1868360846     2.1859261064    -0.2672360175
   22      H       3.7172558473     1.3415214638    -0.7522876086
   23      H       1.9413902405     3.3516748483     0.7191310752
   24      H       3.6079417971     3.6391239576     0.0223859017
 ----------------------------------------------------------------
 Molecular Point Group                 C1    NOp =  1
 Largest Abelian Subgroup              C1    NOp =  1
 Nuclear Repulsion Energy =         978.95960352 hartrees
 There are       55 alpha and       55 beta electrons
 Requested basis set is 6-31G(d)
 There are 78 shells and 243 basis functions

 Total QAlloc Memory Limit   4000 MB
 Mega-Array Size       188 MB
 MEM_STATIC part       192 MB
 A cutoff of  1.0D-08 yielded   1895 shell pairs
 There are     19660 function pairs
 Smallest overlap matrix eigenvalue = 3.42E-04

 Scale SEOQF with 1.000000e-01/1.000000e-01/1.000000e+00

 Standard Electronic Orientation quadrupole field applied
 Nucleus-field energy     =     0.0000000176 hartrees
 Guess from superposition of atomic densities
 Warning:  Energy on first SCF cycle will be non-variational
 SAD guess density has 110.000000 electrons

 -----------------------------------------------------------------------
  General SCF calculation program by
  Eric Jon Sundstrom, Paul Horn, Yuezhi Mao, Dmitri Zuev, Alec White,
  David Stuck, Shaama M.S., Shane Yost, Joonho Lee, David Small,
  Daniel Levine, Susi Lehtola, Hugh Burton, Evgeny Epifanovsky,
  Bang C. Huynh
 -----------------------------------------------------------------------
 Exchange:     0.2000 Hartree-Fock + 0.0800 Slater + 0.7200 B88
 Correlation:  0.1900 VWN1RPA + 0.8100 LYP
 Using SG-1 standard quadrature grid
 A restricted SCF calculation will be
 performed using DIIS
 SCF converges when DIIS error is below 1.0e-05
 ---------------------------------------
  Cycle       Energy         DIIS error
 ---------------------------------------
    1    -802.6125362249      5.09e-02  
    2    -799.0338563436      6.33e-03  
    3    -798.9104860353      8.17e-03  
    4    -799.2863194291      1.15e-03  
    5    -799.2939941458      4.27e-04  
    6    -799.2950214137      2.01e-04  
    7    -799.2953219456      4.56e-05  
    8    -799.2953353021      1.81e-05  
    9    -799.2953375567      3.00e-06  Convergence criterion met
 ---------------------------------------
 SCF time:   CPU 37.22s  wall 37.00s 
 SCF   energy in the final basis set =     -799.2953375567
 Total energy in the final basis set =     -799.2953375567
 
 --------------------------------------------------------------
 
                    Orbital Energies (a.u.)
 --------------------------------------------------------------
 
 Alpha MOs
 -- Occupied --
-24.7292 -24.7274 -24.7272 -19.2238 -10.4816 -10.2712 -10.2103 -10.2045
-10.2032 -10.2012 -10.2008 -10.1997 -10.1977 -10.1910 -10.1884  -1.3260
 -1.2256  -1.2206  -1.1211  -0.8852  -0.8147  -0.8026  -0.7595  -0.7392
 -0.6977  -0.6499  -0.6491  -0.6064  -0.6016  -0.5993  -0.5758  -0.5491
 -0.5175  -0.4941  -0.4763  -0.4702  -0.4644  -0.4606  -0.4525  -0.4431
 -0.4415  -0.4343  -0.4216  -0.4072  -0.4045  -0.4011  -0.3966  -0.3785
 -0.3681  -0.3599  -0.3459  -0.3038  -0.2949  -0.2488  -0.2288
 -- Virtual --
 -0.0452  -0.0266   0.0384   0.0417   0.0892   0.1147   0.1242   0.1337
  0.1401   0.1579   0.1677   0.1781   0.1813   0.1852   0.1932   0.2056
  0.2110   0.2389   0.2688   0.2875   0.2997   0.3201   0.3325   0.3491
  0.3649   0.3823   0.4037   0.4566   0.4634   0.4732   0.4886   0.5084
  0.5133   0.5263   0.5342   0.5487   0.5521   0.5584   0.5687   0.5808
  0.5894   0.6028   0.6168   0.6183   0.6242   0.6413   0.6620   0.6795
  0.6853   0.6899   0.7062   0.7188   0.7911   0.8002   0.8199   0.8431
  0.8512   0.8539   0.8621   0.8721   0.8775   0.9028   0.9384   0.9484
  0.9536   0.9582   0.9623   0.9762   0.9914   1.0009   1.0260   1.0418
  1.0540   1.0690   1.0779   1.1102   1.1350   1.1562   1.1603   1.1862
  1.1900   1.2047   1.2324   1.2510   1.2661   1.2799   1.3139   1.3227
  1.3256   1.3386   1.3576   1.3611   1.3937   1.4109   1.4300   1.4576
  1.4634   1.4744   1.5015   1.5114   1.5264   1.5898   1.6421   1.6487
  1.6643   1.6830   1.6913   1.7014   1.7542   1.7712   1.7930   1.8270
  1.8390   1.8436   1.8565   1.8633   1.8815   1.8925   1.8935   1.8965
  1.9238   1.9380   1.9564   1.9645   1.9749   2.0116   2.0194   2.0415
  2.0527   2.0617   2.0649   2.0809   2.0957   2.1188   2.1594   2.1643
  2.1894   2.2197   2.2296   2.2669   2.2858   2.2957   2.3021   2.3464
  2.3556   2.3647   2.3980   2.4438   2.4662   2.4923   2.5326   2.5762
  2.5940   2.6092   2.6316   2.6428   2.6515   2.7150   2.7520   2.7677
  2.7921   2.8045   2.8352   2.8759   2.9773   2.9967   3.0286   3.0398
  3.0625   3.1073   3.1662   3.3036   3.4689   4.0944   4.1022   4.1082
  4.1227   4.1387   4.2344   4.2720   4.3189   4.3321   4.3885   4.4084
  4.5232   4.7684   4.9225   5.8868
 --------------------------------------------------------------
 
          Ground-State Mulliken Net Atomic Charges

     Atom                 Charge (a.u.)
  ----------------------------------------
      1 C                    -0.337275
      2 C                    -0.134231
      3 C                     0.110018
      4 C                    -0.205325
      5 C                    -0.160859
      6 C                     0.346350
      7 O                    -0.518978
      8 C                     0.971074
      9 F                    -0.276104
     10 F                    -0.276654
     11 F                    -0.253263
     12 C                    -0.240091
     13 C                     0.098311
     14 C                    -0.133883
     15 C                    -0.334155
     16 H                     0.147406
     17 H                     0.147226
     18 H                     0.144428
     19 H                     0.142417
     20 H                     0.164438
     21 H                     0.152206
     22 H                     0.147071
     23 H                     0.150450
     24 H                     0.149424
  ----------------------------------------
  Sum of atomic charges =     0.000000

 -----------------------------------------------------------------
                    Cartesian Multipole Moments
 -----------------------------------------------------------------
    Charge (ESU x 10^10)
                 0.0000
    Dipole Moment (Debye)
         X       2.6617      Y      -0.1382      Z       0.0588
       Tot       2.6659
    Quadrupole Moments (Debye-Ang)
        XX     -83.2722     XY       0.9438     YY     -76.7452
        XZ      -0.5038     YZ       0.6946     ZZ     -86.9317
    Octopole Moments (Debye-Ang^2)
       XXX     -30.9830    XXY      -1.7868    XYY     -13.4142
       YYY      -2.0423    XXZ      -1.4286    XYZ       1.5394
       YYZ       0.5575    XZZ     -33.5939    YZZ       0.3786
       ZZZ      -1.1879
    Hexadecapole Moments (Debye-Ang^3)
      XXXX   -3323.4669   XXXY       4.9940   XXYY    -708.5523
      XYYY      21.8888   YYYY   -1053.4335   XXXZ      -1.9417
      XXYZ      -0.8853   XYYZ      -7.4804   YYYZ      17.4199
      XXZZ    -621.1251   XYZZ      -0.3440   YYZZ    -226.4846
      XZZZ       2.8764   YZZZ       1.6287   ZZZZ    -163.2082
 -----------------------------------------------------------------
Archival summary:
1\1\nia2015.scinet.local\SP\ProcedureUnspecified\6-31G*\31119\rhickman\TueFeb814:38:042022TueFeb814:38:042022\0\\#,ProcedureUnspecified,6-31G*,\\0,1\O\C,1,1.31304\F,2,1.33005,1,108.934\F,2,1.34648,1,114.522,3,119.17,0\F,2,1.34698,1,114.532,3,-119.032,0\C,1,1.41097,2,120.474,3,-178.241,0\C,6,1.38327,1,124.362,2,-3.04929,0\H,7,1.07789,6,122.144,1,-0.273011,0\C,6,1.38404,1,114.718,2,176.847,0\H,9,1.07745,6,118.562,1,-1.41183,0\C,7,1.38429,6,118.413,1,-179.981,0\H,11,1.07882,7,118.72,6,178.485,0\C,9,1.38964,6,120.722,1,-179.992,0\C,11,1.39049,7,122.066,6,-0.123544,0\C,14,1.46363,11,120.236,7,177.88,0\H,15,1.08192,14,115.706,11,-145.48,0\C,15,1.3261,14,124.611,11,34.4862,0\H,17,1.0764,15,121.595,14,-179.398,0\H,17,1.07716,15,122.153,14,1.8925,0\C,13,1.46381,9,119.897,6,177.895,0\H,20,1.08178,13,115.66,9,-145.933,0\C,20,1.32593,13,124.564,9,34.2355,0\H,22,1.07641,20,121.591,13,-179.509,0\H,22,1.07714,20,122.121,13,1.76781,0\\\@

 Total job time:  38.25s(wall), 37.41s(cpu) 
 Tue Feb  8 14:38:04 2022

        *************************************************************
        *                                                           *
        *  Thank you very much for using Q-Chem.  Have a nice day.  *
        *                                                           *
        *************************************************************


