
Running Job 1 of 1 fragments/B007/conf-1/spe_input.inp
qchem fragments/B007/conf-1/spe_input.inp_310038.0 /gpfs/fs0/scratch/a/aspuru/rhickman/descriptor_computation/qchem310038/ 0
/scinet/niagara/software/commercial/qc52/exe/qcprog.exe_s fragments/B007/conf-1/spe_input.inp_310038.0 /gpfs/fs0/scratch/a/aspuru/rhickman/descriptor_computation/qchem310038/
                  Welcome to Q-Chem
     A Quantum Leap Into The Future Of Chemistry


 Q-Chem 5.2, Q-Chem, Inc., Pleasanton, CA (2019)

 License issued to: SRG Alan Aspuru-Guzik, University of Toronto

 Yihan Shao,  Zhengting Gan,  E. Epifanovsky,  A. T. B. Gilbert,  M. Wormit,  
 J. Kussmann,  A. W. Lange,  A. Behn,  Jia Deng,  Xintian Feng,  D. Ghosh,  
 M. Goldey,  P. R. Horn,  L. D. Jacobson,  I. Kaliman,  T. Kus,  A. Landau,  
 Jie Liu,  E. I. Proynov,  R. M. Richard,  R. P. Steele,  E. J. Sundstrom,  
 H. L. Woodcock III,  P. M. Zimmerman,  D. Zuev,  B. Albrecht,  E. Alguire,  
 S. A. Baeppler,  D. Barton,  Z. Benda,  Y. A. Bernard,  E. J. Berquist,  
 K. B. Bravaya,  H. Burton,  D. Casanova,  Chun-Min Chang,  Yunqing Chen,  
 A. Chien,  K. D. Closser,  M. P. Coons,  S. Coriani,  S. Dasgupta,  
 A. L. Dempwolff,  M. Diedenhofen,  Hainam Do,  R. G. Edgar,  Po-Tung Fang,  
 S. Faraji,  S. Fatehi,  Qingguo Feng,  K. D. Fenk,  J. Fosso-Tande,  
 J. Gayvert,  Qinghui Ge,  A. Ghysels,  G. Gidofalvi,  J. Gomes,  
 J. Gonthier,  A. Gunina,  D. Hait,  M. W. D. Hanson-Heine,  
 P. H. P. Harbach,  A. W. Hauser,  M. F. Herbst,  J. E. Herr,  
 E. G. Hohenstein,  Z. C. Holden,  Kerwin Hui,  B. C. Huynh,  T.-C. Jagau,  
 Hyunjun Ji,  B. Kaduk,  K. Khistyaev,  Jaehoon Kim,  P. Klunzinger,  K. Koh,  
 D. Kosenkov,  L. Koulias,  T. Kowalczyk,  C. M. Krauter,  A. Kunitsa,  
 Ka Un Lao,  A. Laurent,  K. V. Lawler,  Joonho Lee,  D. Lefrancois,  
 S. Lehtola,  D. S. Levine,  Yi-Pei Li,  You-Sheng Lin,  Fenglai Liu,  
 E. Livshits,  A. Luenser,  P. Manohar,  E. Mansoor,  S. F. Manzer,  
 Shan-Ping Mao,  Yuezhi Mao,  N. Mardirossian,  A. V. Marenich,  
 T. Markovich,  L. A. Martinez-Martinez,  S. A. Maurer,  N. J. Mayhall,  
 S. C. McKenzie,  J.-M. Mewes,  P. Morgante,  A. F. Morrison,  
 J. W. Mullinax,  K. Nanda,  T. S. Nguyen-Beck,  R. Olivares-Amaya,  
 J. A. Parkhill,  Zheng Pei,  T. M. Perrine,  F. Plasser,  P. Pokhilko,  
 S. Prager,  A. Prociuk,  E. Ramos,  D. R. Rehn,  F. Rob,  M. Scheurer,  
 M. Schneider,  N. Sergueev,  S. M. Sharada,  S. Sharma,  D. W. Small,  
 T. Stauch,  T. Stein,  Yu-Chuan Su,  A. J. W. Thom,  A. Tkatchenko,  
 T. Tsuchimochi,  N. M. Tubman,  L. Vogt,  M. L. Vidal,  O. Vydrov,  
 M. A. Watson,  J. Wenzel,  M. de Wergifosse,  T. A. Wesolowski,  A. White,  
 J. Witte,  A. Yamada,  Jun Yang,  K. Yao,  S. Yeganeh,  S. R. Yost,  
 Zhi-Qiang You,  A. Zech,  Igor Ying Zhang,  Xing Zhang,  Yan Zhao,  
 Ying Zhu,  B. R. Brooks,  G. K. L. Chan,  C. J. Cramer,  M. S. Gordon,  
 W. J. Hehre,  A. Klamt,  M. W. Schmidt,  C. D. Sherrill,  D. G. Truhlar,  
 A. Aspuru-Guzik,  R. Baer,  A. T. Bell,  N. A. Besley,  Jeng-Da Chai,  
 A. E. DePrince, III,  R. A. DiStasio Jr.,  A. Dreuw,  B. D. Dunietz,  
 T. R. Furlani,  Chao-Ping Hsu,  Yousung Jung,  Jing Kong,  D. S. Lambrecht,  
 WanZhen Liang,  C. Ochsenfeld,  V. A. Rassolov,  L. V. Slipchenko,  
 J. E. Subotnik,  T. Van Voorhis,  J. M. Herbert,  A. I. Krylov,  
 P. M. W. Gill,  M. Head-Gordon

 Contributors to earlier versions of Q-Chem not listed above: 
 R. D. Adamson,  B. Austin,  J. Baker,  G. J. O. Beran,  K. Brandhorst,  
 S. T. Brown,  E. F. C. Byrd,  A. K. Chakraborty,  C.-L. Cheng,  
 Siu Hung Chien,  D. M. Chipman,  D. L. Crittenden,  H. Dachsel,  
 R. J. Doerksen,  A. D. Dutoi,  L. Fusti-Molnar,  W. A. Goddard III,  
 A. Golubeva-Zadorozhnaya,  S. R. Gwaltney,  G. Hawkins,  A. Heyden,  
 S. Hirata,  G. Kedziora,  F. J. Keil,  C. Kelley,  Jihan Kim,  R. A. King,  
 R. Z. Khaliullin,  P. P. Korambath,  W. Kurlancheek,  A. M. Lee,  M. S. Lee,  
 S. V. Levchenko,  Ching Yeh Lin,  D. Liotard,  R. C. Lochan,  I. Lotan,  
 P. E. Maslen,  N. Nair,  D. P. O'Neill,  D. Neuhauser,  E. Neuscamman,  
 C. M. Oana,  R. Olson,  B. Peters,  R. Peverati,  P. A. Pieniazek,  
 Y. M. Rhee,  J. Ritchie,  M. A. Rohrdanz,  E. Rosta,  N. J. Russ,  
 H. F. Schaefer III,  N. E. Schultz,  N. Shenvi,  A. C. Simmonett,  A. Sodt,  
 D. Stuck,  K. S. Thanthiriwatte,  V. Vanovschi,  Tao Wang,  A. Warshel,  
 C. F. Williams,  Q. Wu,  X. Xu,  W. Zhang

 Please cite Q-Chem as follows:
 Y. Shao et al., Mol. Phys. 113, 184-215 (2015)
 DOI: 10.1080/00268976.2014.952696

 Q-Chem 5.2.1 for Intel X86 EM64T Linux

 Parts of Q-Chem use Armadillo 8.300.2 (Tropical Shenanigans).
 http://arma.sourceforge.net/

 Q-Chem begins on Tue Feb  8 13:53:25 2022  

Host: 
0

     Scratch files written to /gpfs/fs0/scratch/a/aspuru/rhickman/descriptor_computation/qchem310038//
 Jul1719 |scratch|qcdevops|jenkins|workspace|build_RNUM -1
Processing $rem in /scinet/niagara/software/commercial/qc52/config/preferences:
	 MEM_TOTAL  4000 
NAlpha2: 88
NElect   88
Mult     1

Checking the input file for inconsistencies... 	...done.

--------------------------------------------------------------
User input:
--------------------------------------------------------------
$molecule
0 1
C        -0.84303420070000   -2.52469856710000   -0.71722445270000
C        -1.53912260970000   -1.69473515790000    0.04780026660000
C        -1.38517629140000   -0.25527080740000    0.08707883580000
C        -2.43000948510000    0.65996287080000    0.31958566370000
N        -2.01580395750000    1.90464655100000    0.20344864380000
N        -0.72709160420000    1.84383773630000   -0.09674506280000
C         0.03188725100000    3.04946064160000   -0.25681341880000
C        -0.27954286120000    0.56087657770000   -0.17169492520000
C         1.11439965010000    0.28756216500000   -0.43212010570000
C         1.81460062580000   -0.71379548860000    0.08022772140000
F         1.38845373560000   -1.63686150220000    0.92755193680000
F         3.10071541940000   -0.92319837370000   -0.19629176200000
H        -1.03340285480000   -3.58345926240000   -0.71514499090000
H        -0.06820856830000   -2.17981854230000   -1.38128608340000
H        -2.34038376450000   -2.07532667040000    0.66837348240000
H        -3.45443079880000    0.44596834880000    0.54948865800000
H        -0.64129948780000    3.88178616290000   -0.06283330230000
H         0.42128534230000    3.13321828280000   -1.27385922620000
H         0.86334990140000    3.08231598550000    0.44960891360000
H         1.65197406840000    0.97399104580000   -1.06988531000000
$end

$rem
BASIS = 6-31G*
GUI = 2
METHOD = B3LYP
PRINT_ORBITALS false
MOLDEN_FORMAT false
--------------------------------------------------------------
 ----------------------------------------------------------------
             Standard Nuclear Orientation (Angstroms)
    I     Atom           X                Y                Z
 ----------------------------------------------------------------
    1      C       1.3170780198    -2.3047340034    -0.7871330681
    2      C       0.2362172120    -2.2705122590    -0.0195329502
    3      C      -0.7046834172    -1.1726682561     0.0625916039
    4      C      -2.0873136404    -1.3128756922     0.2907670939
    5      N      -2.7080118912    -0.1535876540     0.2195181224
    6      N      -1.7792330484     0.7525674050    -0.0466516977
    7      C      -2.1348567151     2.1372481494    -0.1533682138
    8      C      -0.5391938416     0.2004852133    -0.1436811415
    9      C       0.6163658891     1.0357861308    -0.3729230521
   10      C       1.8254884647     0.8378931891     0.1314179373
   11      F       2.2046133845    -0.1375288573     0.9416194493
   12      F       2.8605400776     1.6393128881    -0.1151555405
   13      H       1.9561947011    -3.1694602118    -0.8187117128
   14      H       1.5978460138    -1.4796614400    -1.4201413148
   15      H      -0.0367624621    -3.1376198833     0.5683334627
   16      H      -2.6348839566    -2.2128251173     0.4865880615
   17      H      -3.2020784020     2.2116707504     0.0443021980
   18      H      -1.9290694391     2.5167088011    -1.1567074392
   19      H      -1.5874561842     2.7367593176     0.5762763176
   20      H       0.4859313194     1.9217784183    -0.9770089805
 ----------------------------------------------------------------
 Molecular Point Group                 C1    NOp =  1
 Largest Abelian Subgroup              C1    NOp =  1
 Nuclear Repulsion Energy =         696.51161526 hartrees
 There are       44 alpha and       44 beta electrons
 Requested basis set is 6-31G(d)
 There are 64 shells and 196 basis functions

 Total QAlloc Memory Limit   4000 MB
 Mega-Array Size       188 MB
 MEM_STATIC part       192 MB
 A cutoff of  1.0D-08 yielded   1522 shell pairs
 There are     15516 function pairs
 Smallest overlap matrix eigenvalue = 7.02E-04

 Scale SEOQF with 1.000000e-01/1.000000e-01/1.000000e+00

 Standard Electronic Orientation quadrupole field applied
 Nucleus-field energy     =     0.0000000041 hartrees
 Guess from superposition of atomic densities
 Warning:  Energy on first SCF cycle will be non-variational
 SAD guess density has 88.000000 electrons

 -----------------------------------------------------------------------
  General SCF calculation program by
  Eric Jon Sundstrom, Paul Horn, Yuezhi Mao, Dmitri Zuev, Alec White,
  David Stuck, Shaama M.S., Shane Yost, Joonho Lee, David Small,
  Daniel Levine, Susi Lehtola, Hugh Burton, Evgeny Epifanovsky,
  Bang C. Huynh
 -----------------------------------------------------------------------
 Exchange:     0.2000 Hartree-Fock + 0.0800 Slater + 0.7200 B88
 Correlation:  0.1900 VWN1RPA + 0.8100 LYP
 Using SG-1 standard quadrature grid
 A restricted SCF calculation will be
 performed using DIIS
 SCF converges when DIIS error is below 1.0e-05
 ---------------------------------------
  Cycle       Energy         DIIS error
 ---------------------------------------
    1    -621.5904070507      5.84e-02  
    2    -618.5801833536      6.33e-03  
    3    -618.4068180892      8.80e-03  
    4    -618.7655919704      1.47e-03  
    5    -618.7750768447      4.66e-04  
    6    -618.7757850938      2.62e-04  
    7    -618.7761033878      5.42e-05  
    8    -618.7761146729      2.47e-05  
    9    -618.7761174537      6.38e-06  Convergence criterion met
 ---------------------------------------
 SCF time:   CPU 25.10s  wall 26.00s 
 SCF   energy in the final basis set =     -618.7761174537
 Total energy in the final basis set =     -618.7761174537
 
 --------------------------------------------------------------
 
                    Orbital Energies (a.u.)
 --------------------------------------------------------------
 
 Alpha MOs
 -- Occupied --
-24.7447 -24.7406 -14.4135 -14.3421 -10.3643 -10.2333 -10.2304 -10.2139
-10.1959 -10.1876 -10.1844 -10.1729  -1.2888  -1.2287  -1.0610  -0.8541
 -0.8334  -0.7844  -0.7492  -0.7036  -0.6510  -0.6184  -0.5900  -0.5777
 -0.5564  -0.5288  -0.5191  -0.5019  -0.4868  -0.4679  -0.4447  -0.4417
 -0.4381  -0.4330  -0.4204  -0.4078  -0.4023  -0.3914  -0.3577  -0.3063
 -0.2968  -0.2771  -0.2351  -0.2103
 -- Virtual --
 -0.0255   0.0212   0.0524   0.0820   0.1099   0.1218   0.1294   0.1320
  0.1457   0.1500   0.1680   0.1720   0.1802   0.1938   0.2079   0.2613
  0.2702   0.3178   0.3282   0.3545   0.3751   0.4094   0.4503   0.4559
  0.4832   0.4859   0.5164   0.5299   0.5314   0.5403   0.5447   0.5657
  0.5814   0.5905   0.6089   0.6242   0.6414   0.6650   0.6734   0.6783
  0.6906   0.7349   0.7521   0.7619   0.7819   0.8045   0.8197   0.8267
  0.8471   0.8666   0.8715   0.8764   0.8880   0.9040   0.9149   0.9339
  0.9601   0.9805   1.0038   1.0085   1.0108   1.0701   1.0826   1.1089
  1.1386   1.1694   1.1900   1.2014   1.2398   1.2737   1.2855   1.3048
  1.3178   1.3409   1.3639   1.3909   1.3927   1.4063   1.4350   1.4463
  1.4884   1.4922   1.5272   1.5537   1.6055   1.6294   1.6727   1.7044
  1.7215   1.7679   1.7840   1.8075   1.8310   1.8396   1.8531   1.8802
  1.9103   1.9332   1.9605   1.9772   1.9955   1.9981   2.0139   2.0264
  2.0442   2.0771   2.1103   2.1275   2.1393   2.1598   2.1956   2.2171
  2.2234   2.2730   2.2833   2.3103   2.3330   2.3660   2.3875   2.4168
  2.4756   2.4985   2.5263   2.5328   2.5516   2.6297   2.6369   2.6610
  2.7096   2.7311   2.7421   2.8551   2.8677   2.9586   3.0048   3.0711
  3.1223   3.1256   3.2576   3.3550   3.8466   4.0468   4.0745   4.1140
  4.1802   4.2166   4.2744   4.3336   4.4524   4.7135   4.7778   5.2925
 --------------------------------------------------------------
 
          Ground-State Mulliken Net Atomic Charges

     Atom                 Charge (a.u.)
  ----------------------------------------
      1 C                    -0.346475
      2 C                    -0.113524
      3 C                    -0.030184
      4 C                     0.015405
      5 N                    -0.291899
      6 N                    -0.296992
      7 C                    -0.323504
      8 C                     0.353713
      9 C                    -0.333740
     10 C                     0.571820
     11 F                    -0.220247
     12 F                    -0.246007
     13 H                     0.139746
     14 H                     0.136113
     15 H                     0.129688
     16 H                     0.141872
     17 H                     0.201488
     18 H                     0.169496
     19 H                     0.175226
     20 H                     0.168003
  ----------------------------------------
  Sum of atomic charges =     0.000000

 -----------------------------------------------------------------
                    Cartesian Multipole Moments
 -----------------------------------------------------------------
    Charge (ESU x 10^10)
                 0.0000
    Dipole Moment (Debye)
         X       0.3055      Y       1.6893      Z      -0.5714
       Tot       1.8093
    Quadrupole Moments (Debye-Ang)
        XX     -73.8867     XY      -3.7522     YY     -58.8460
        XZ      -0.5625     YZ      -2.2145     ZZ     -68.1936
    Octopole Moments (Debye-Ang^2)
       XXX      46.4818    XXY       5.5383    XYY      -4.2995
       YYY      14.9055    XXZ      -2.0358    XYZ       4.6968
       YYZ       5.3376    XZZ      12.9008    YZZ       9.5956
       ZZZ       6.8110
    Hexadecapole Moments (Debye-Ang^3)
      XXXX   -1465.2088   XXXY      -2.4307   XXYY    -350.2110
      XYYY       7.2836   YYYY    -920.5326   XXXZ      15.4497
      XXYZ      -0.8854   XYYZ      -2.3721   YYYZ     -23.2662
      XXZZ    -254.5660   XYZZ       8.3348   YYZZ    -187.5800
      XZZZ      16.4947   YZZZ      -8.5447   ZZZZ    -144.4667
 -----------------------------------------------------------------
Archival summary:
1\1\nia2015.scinet.local\SP\ProcedureUnspecified\6-31G*\2288\rhickman\TueFeb813:53:512022TueFeb813:53:512022\0\\#,ProcedureUnspecified,6-31G*,\\0,1\F\C,1,1.32348\C,2,1.32495,1,127.194\H,3,1.08024,2,116.459,1,176.832,0\F,2,1.33207,1,109.52,3,179.467,0\C,3,1.44416,2,125.69,1,-0.776512,0\N,6,1.36085,3,120.384,2,144.435,0\N,7,1.32461,6,112.069,3,-177.337,0\C,8,1.31693,7,106.415,6,-0.428548,0\H,9,1.07149,8,120.557,7,-179.226,0\C,6,1.39839,3,133.32,2,-33.0888,0\C,7,1.4336,6,127.776,3,0.420028,0\H,12,1.08792,7,107.211,6,-176.18,0\H,12,1.09153,7,110.875,6,-56.7637,0\H,12,1.09226,7,110.928,6,64.7389,0\C,11,1.44821,6,131.234,3,-7.35809,0\H,16,1.08258,11,114.366,6,155.734,0\C,16,1.32614,11,125.586,6,-27.9853,0\H,18,1.07574,16,121.464,11,-178.103,0\H,18,1.07716,16,122.197,11,1.11563,0\\\@

 Total job time:  25.35s(wall), 25.25s(cpu) 
 Tue Feb  8 13:53:51 2022

        *************************************************************
        *                                                           *
        *  Thank you very much for using Q-Chem.  Have a nice day.  *
        *                                                           *
        *************************************************************


