
Running Job 1 of 1 fragments/B018/conf-1/spe_input.inp
qchem fragments/B018/conf-1/spe_input.inp_143440.0 /gpfs/fs0/scratch/a/aspuru/rhickman/descriptor_computation/qchem143440/ 0
/scinet/niagara/software/commercial/qc52/exe/qcprog.exe_s fragments/B018/conf-1/spe_input.inp_143440.0 /gpfs/fs0/scratch/a/aspuru/rhickman/descriptor_computation/qchem143440/
                  Welcome to Q-Chem
     A Quantum Leap Into The Future Of Chemistry


 Q-Chem 5.2, Q-Chem, Inc., Pleasanton, CA (2019)

 License issued to: SRG Alan Aspuru-Guzik, University of Toronto

 Yihan Shao,  Zhengting Gan,  E. Epifanovsky,  A. T. B. Gilbert,  M. Wormit,  
 J. Kussmann,  A. W. Lange,  A. Behn,  Jia Deng,  Xintian Feng,  D. Ghosh,  
 M. Goldey,  P. R. Horn,  L. D. Jacobson,  I. Kaliman,  T. Kus,  A. Landau,  
 Jie Liu,  E. I. Proynov,  R. M. Richard,  R. P. Steele,  E. J. Sundstrom,  
 H. L. Woodcock III,  P. M. Zimmerman,  D. Zuev,  B. Albrecht,  E. Alguire,  
 S. A. Baeppler,  D. Barton,  Z. Benda,  Y. A. Bernard,  E. J. Berquist,  
 K. B. Bravaya,  H. Burton,  D. Casanova,  Chun-Min Chang,  Yunqing Chen,  
 A. Chien,  K. D. Closser,  M. P. Coons,  S. Coriani,  S. Dasgupta,  
 A. L. Dempwolff,  M. Diedenhofen,  Hainam Do,  R. G. Edgar,  Po-Tung Fang,  
 S. Faraji,  S. Fatehi,  Qingguo Feng,  K. D. Fenk,  J. Fosso-Tande,  
 J. Gayvert,  Qinghui Ge,  A. Ghysels,  G. Gidofalvi,  J. Gomes,  
 J. Gonthier,  A. Gunina,  D. Hait,  M. W. D. Hanson-Heine,  
 P. H. P. Harbach,  A. W. Hauser,  M. F. Herbst,  J. E. Herr,  
 E. G. Hohenstein,  Z. C. Holden,  Kerwin Hui,  B. C. Huynh,  T.-C. Jagau,  
 Hyunjun Ji,  B. Kaduk,  K. Khistyaev,  Jaehoon Kim,  P. Klunzinger,  K. Koh,  
 D. Kosenkov,  L. Koulias,  T. Kowalczyk,  C. M. Krauter,  A. Kunitsa,  
 Ka Un Lao,  A. Laurent,  K. V. Lawler,  Joonho Lee,  D. Lefrancois,  
 S. Lehtola,  D. S. Levine,  Yi-Pei Li,  You-Sheng Lin,  Fenglai Liu,  
 E. Livshits,  A. Luenser,  P. Manohar,  E. Mansoor,  S. F. Manzer,  
 Shan-Ping Mao,  Yuezhi Mao,  N. Mardirossian,  A. V. Marenich,  
 T. Markovich,  L. A. Martinez-Martinez,  S. A. Maurer,  N. J. Mayhall,  
 S. C. McKenzie,  J.-M. Mewes,  P. Morgante,  A. F. Morrison,  
 J. W. Mullinax,  K. Nanda,  T. S. Nguyen-Beck,  R. Olivares-Amaya,  
 J. A. Parkhill,  Zheng Pei,  T. M. Perrine,  F. Plasser,  P. Pokhilko,  
 S. Prager,  A. Prociuk,  E. Ramos,  D. R. Rehn,  F. Rob,  M. Scheurer,  
 M. Schneider,  N. Sergueev,  S. M. Sharada,  S. Sharma,  D. W. Small,  
 T. Stauch,  T. Stein,  Yu-Chuan Su,  A. J. W. Thom,  A. Tkatchenko,  
 T. Tsuchimochi,  N. M. Tubman,  L. Vogt,  M. L. Vidal,  O. Vydrov,  
 M. A. Watson,  J. Wenzel,  M. de Wergifosse,  T. A. Wesolowski,  A. White,  
 J. Witte,  A. Yamada,  Jun Yang,  K. Yao,  S. Yeganeh,  S. R. Yost,  
 Zhi-Qiang You,  A. Zech,  Igor Ying Zhang,  Xing Zhang,  Yan Zhao,  
 Ying Zhu,  B. R. Brooks,  G. K. L. Chan,  C. J. Cramer,  M. S. Gordon,  
 W. J. Hehre,  A. Klamt,  M. W. Schmidt,  C. D. Sherrill,  D. G. Truhlar,  
 A. Aspuru-Guzik,  R. Baer,  A. T. Bell,  N. A. Besley,  Jeng-Da Chai,  
 A. E. DePrince, III,  R. A. DiStasio Jr.,  A. Dreuw,  B. D. Dunietz,  
 T. R. Furlani,  Chao-Ping Hsu,  Yousung Jung,  Jing Kong,  D. S. Lambrecht,  
 WanZhen Liang,  C. Ochsenfeld,  V. A. Rassolov,  L. V. Slipchenko,  
 J. E. Subotnik,  T. Van Voorhis,  J. M. Herbert,  A. I. Krylov,  
 P. M. W. Gill,  M. Head-Gordon

 Contributors to earlier versions of Q-Chem not listed above: 
 R. D. Adamson,  B. Austin,  J. Baker,  G. J. O. Beran,  K. Brandhorst,  
 S. T. Brown,  E. F. C. Byrd,  A. K. Chakraborty,  C.-L. Cheng,  
 Siu Hung Chien,  D. M. Chipman,  D. L. Crittenden,  H. Dachsel,  
 R. J. Doerksen,  A. D. Dutoi,  L. Fusti-Molnar,  W. A. Goddard III,  
 A. Golubeva-Zadorozhnaya,  S. R. Gwaltney,  G. Hawkins,  A. Heyden,  
 S. Hirata,  G. Kedziora,  F. J. Keil,  C. Kelley,  Jihan Kim,  R. A. King,  
 R. Z. Khaliullin,  P. P. Korambath,  W. Kurlancheek,  A. M. Lee,  M. S. Lee,  
 S. V. Levchenko,  Ching Yeh Lin,  D. Liotard,  R. C. Lochan,  I. Lotan,  
 P. E. Maslen,  N. Nair,  D. P. O'Neill,  D. Neuhauser,  E. Neuscamman,  
 C. M. Oana,  R. Olson,  B. Peters,  R. Peverati,  P. A. Pieniazek,  
 Y. M. Rhee,  J. Ritchie,  M. A. Rohrdanz,  E. Rosta,  N. J. Russ,  
 H. F. Schaefer III,  N. E. Schultz,  N. Shenvi,  A. C. Simmonett,  A. Sodt,  
 D. Stuck,  K. S. Thanthiriwatte,  V. Vanovschi,  Tao Wang,  A. Warshel,  
 C. F. Williams,  Q. Wu,  X. Xu,  W. Zhang

 Please cite Q-Chem as follows:
 Y. Shao et al., Mol. Phys. 113, 184-215 (2015)
 DOI: 10.1080/00268976.2014.952696

 Q-Chem 5.2.1 for Intel X86 EM64T Linux

 Parts of Q-Chem use Armadillo 8.300.2 (Tropical Shenanigans).
 http://arma.sourceforge.net/

 Q-Chem begins on Mon Feb  7 17:19:22 2022  

Host: 
0

     Scratch files written to /gpfs/fs0/scratch/a/aspuru/rhickman/descriptor_computation/qchem143440//
 Jul1719 |scratch|qcdevops|jenkins|workspace|build_RNUM -1
Processing $rem in /scinet/niagara/software/commercial/qc52/config/preferences:
	 MEM_TOTAL  4000 
NAlpha2: 86
NElect   86
Mult     1

Checking the input file for inconsistencies... 	...done.

--------------------------------------------------------------
User input:
--------------------------------------------------------------
$molecule
0 1
C        -4.73261355520000   -0.44193294440000   -0.00939224750000
C        -3.69957566250000    0.39215829380000    0.00672013510000
C        -2.29001709810000    0.02533361990000    0.00287345670000
C        -1.82049323130000   -1.29271488210000   -0.00824610780000
C        -0.46119453580000   -1.51750329690000   -0.01099351950000
C         0.42580387440000   -0.43535344780000   -0.00279563480000
C         1.85268216740000   -0.69552488820000   -0.00594901470000
C         2.84563781760000    0.18271084750000   -0.00012672210000
F         2.76449717430000    1.50579881940000    0.00995860210000
F         4.12803852410000   -0.17298041400000   -0.00377808330000
C        -0.14847478770000    0.84238535840000    0.00842633350000
N        -1.44319117310000    1.05743688090000    0.01129966350000
H        -5.74480206930000   -0.07584830780000   -0.00530773830000
H        -4.62056716950000   -1.51289852680000   -0.02778679400000
H        -3.86007018920000    1.46142008830000    0.02365062150000
H        -2.50837067670000   -2.12279317330000   -0.01407900110000
H        -0.07513746660000   -2.52749505630000   -0.01936323840000
H         2.15377882930000   -1.73373452780000   -0.01405837370000
H         0.46174322420000    1.73411225770000    0.01559439440000
$end

$rem
BASIS = 6-31G*
GUI = 2
METHOD = B3LYP
PRINT_ORBITALS false
MOLDEN_FORMAT false
--------------------------------------------------------------
 ----------------------------------------------------------------
             Standard Nuclear Orientation (Angstroms)
    I     Atom           X                Y                Z
 ----------------------------------------------------------------
    1      C       4.6283871610    -0.0877151102     0.0067103402
    2      C       3.5402560053     0.6732189881    -0.0025079168
    3      C       2.1593676509     0.2099936739    -0.0021259848
    4      C       1.7819074712    -1.1373562820    -0.0023883323
    5      C       0.4413588078    -1.4554118513    -0.0018792052
    6      C      -0.5181932439    -0.4370107436    -0.0010278431
    7      C      -1.9237190007    -0.7950299833    -0.0004310677
    8      C      -2.9749055649     0.0126193901     0.0010272388
    9      F      -2.9852503632     1.3381904833     0.0022766831
   10      F      -4.2297073360    -0.4307242650     0.0013386113
   11      C      -0.0334467249     0.8773557037    -0.0011883095
   12      N       1.2433453051     1.1812430289    -0.0019216237
   13      H       5.6129034375     0.3473566283     0.0059919648
   14      H       4.5905072827    -1.1639773218     0.0159188829
   15      H       3.6265866449     1.7511117987    -0.0102557720
   16      H       2.5254201899    -1.9180143278    -0.0034950343
   17      H       0.1259106843    -2.4896680188    -0.0022372928
   18      H      -2.1524623495    -1.8515715073    -0.0012711030
   19      H      -0.7037391027     1.7248828679    -0.0008714468
 ----------------------------------------------------------------
 Molecular Point Group                 C1    NOp =  1
 Largest Abelian Subgroup              C1    NOp =  1
 Nuclear Repulsion Energy =         631.55669413 hartrees
 There are       43 alpha and       43 beta electrons
 Requested basis set is 6-31G(d)
 There are 62 shells and 194 basis functions

 Total QAlloc Memory Limit   4000 MB
 Mega-Array Size       188 MB
 MEM_STATIC part       192 MB
 A cutoff of  1.0D-08 yielded   1316 shell pairs
 There are     13719 function pairs
 Smallest overlap matrix eigenvalue = 6.17E-04

 Scale SEOQF with 1.000000e-02/1.000000e-01/1.000000e+00

 Standard Electronic Orientation quadrupole field applied
 Nucleus-field energy     =     0.0000000082 hartrees
 Guess from superposition of atomic densities
 Warning:  Energy on first SCF cycle will be non-variational
 SAD guess density has 86.000000 electrons

 -----------------------------------------------------------------------
  General SCF calculation program by
  Eric Jon Sundstrom, Paul Horn, Yuezhi Mao, Dmitri Zuev, Alec White,
  David Stuck, Shaama M.S., Shane Yost, Joonho Lee, David Small,
  Daniel Levine, Susi Lehtola, Hugh Burton, Evgeny Epifanovsky,
  Bang C. Huynh
 -----------------------------------------------------------------------
 Exchange:     0.2000 Hartree-Fock + 0.0800 Slater + 0.7200 B88
 Correlation:  0.1900 VWN1RPA + 0.8100 LYP
 Using SG-1 standard quadrature grid
 A restricted SCF calculation will be
 performed using DIIS
 SCF converges when DIIS error is below 1.0e-05
 ---------------------------------------
  Cycle       Energy         DIIS error
 ---------------------------------------
    1    -604.2749765892      5.76e-02  
    2    -601.3633073970      6.26e-03  
    3    -601.2000447980      8.61e-03  
    4    -601.5431474383      1.47e-03  
    5    -601.5532712983      4.10e-04  
    6    -601.5538521604      1.94e-04  
    7    -601.5540192429      5.15e-05  
    8    -601.5540312078      1.42e-05  
    9    -601.5540320604      3.36e-06  Convergence criterion met
 ---------------------------------------
 SCF time:   CPU 21.12s  wall 22.00s 
 SCF   energy in the final basis set =     -601.5540320604
 Total energy in the final basis set =     -601.5540320604
 
 --------------------------------------------------------------
 
                    Orbital Energies (a.u.)
 --------------------------------------------------------------
 
 Alpha MOs
 -- Occupied --
-24.7512 -24.7412 -14.3255 -10.3651 -10.2270 -10.2203 -10.2154 -10.2116
-10.2096 -10.1998 -10.1890 -10.1857  -1.2929  -1.2317  -0.9518  -0.8397
 -0.8041  -0.7843  -0.7356  -0.6664  -0.6372  -0.6283  -0.5805  -0.5753
 -0.5464  -0.5261  -0.5054  -0.4940  -0.4562  -0.4534  -0.4475  -0.4417
 -0.4231  -0.4222  -0.4127  -0.4104  -0.3758  -0.3569  -0.3351  -0.2905
 -0.2734  -0.2531  -0.2194
 -- Virtual --
 -0.0538  -0.0191   0.0192   0.0801   0.0858   0.1093   0.1264   0.1411
  0.1474   0.1653   0.1770   0.1931   0.1992   0.2184   0.2660   0.2743
  0.2976   0.3334   0.3492   0.3773   0.3966   0.4369   0.4494   0.4748
  0.4870   0.5105   0.5170   0.5280   0.5437   0.5486   0.5661   0.5752
  0.5872   0.5899   0.6045   0.6128   0.6317   0.6382   0.6584   0.6639
  0.6900   0.7019   0.7185   0.7395   0.7723   0.8088   0.8280   0.8337
  0.8606   0.8731   0.8820   0.8845   0.8848   0.9205   0.9558   0.9596
  0.9938   1.0074   1.0200   1.0463   1.1034   1.1163   1.1277   1.1536
  1.1555   1.2009   1.2073   1.2303   1.2472   1.2496   1.2898   1.3122
  1.3389   1.3544   1.3957   1.4005   1.4391   1.4540   1.4575   1.4741
  1.5029   1.5036   1.5219   1.5362   1.5908   1.6617   1.6734   1.6992
  1.7318   1.7764   1.7801   1.7930   1.8276   1.8303   1.8461   1.8581
  1.8706   1.9256   1.9590   1.9752   1.9761   1.9896   2.0109   2.0113
  2.0382   2.0540   2.1209   2.1484   2.1632   2.1676   2.1851   2.2266
  2.2274   2.2646   2.3046   2.3457   2.3546   2.3851   2.3873   2.4812
  2.5167   2.5219   2.5844   2.6318   2.6410   2.6444   2.6592   2.7276
  2.7300   2.7636   2.8450   2.8886   2.9301   2.9598   3.0460   3.1287
  3.1993   3.3219   3.4694   4.0544   4.0684   4.1009   4.1314   4.1864
  4.2364   4.2805   4.3116   4.5239   4.6706   4.7981   5.2862
 --------------------------------------------------------------
 
          Ground-State Mulliken Net Atomic Charges

     Atom                 Charge (a.u.)
  ----------------------------------------
      1 C                    -0.348207
      2 C                    -0.086104
      3 C                     0.294300
      4 C                    -0.168974
      5 C                    -0.159192
      6 C                     0.168741
      7 C                    -0.305325
      8 C                     0.553292
      9 F                    -0.229567
     10 F                    -0.244991
     11 C                    -0.016845
     12 N                    -0.482715
     13 H                     0.150189
     14 H                     0.141792
     15 H                     0.146937
     16 H                     0.136127
     17 H                     0.139329
     18 H                     0.162842
     19 H                     0.148371
  ----------------------------------------
  Sum of atomic charges =     0.000000

 -----------------------------------------------------------------
                    Cartesian Multipole Moments
 -----------------------------------------------------------------
    Charge (ESU x 10^10)
                 0.0000
    Dipole Moment (Debye)
         X       0.3005      Y      -2.3742      Z      -0.0005
       Tot       2.3931
    Quadrupole Moments (Debye-Ang)
        XX     -64.2867     XY      -1.7836     YY     -63.8638
        XZ       0.0099     YZ      -0.0144     ZZ     -69.1559
    Octopole Moments (Debye-Ang^2)
       XXX      -6.0927    XXY      -1.5863    XYY     -17.4248
       YYY      -5.0925    XXZ       0.0609    XYZ      -0.0769
       YYZ      -0.0072    XZZ     -26.1915    YZZ       4.6702
       ZZZ       0.0279
    Hexadecapole Moments (Debye-Ang^3)
      XXXX   -2798.4316   XXXY     -13.1002   XXYY    -528.6316
      XYYY     -20.6515   YYYY    -399.9521   XXXZ       0.3722
      XXYZ      -0.3389   XYYZ      -0.0472   YYYZ      -0.0007
      XXZZ    -518.0044   XYZZ      -7.3649   YYZZ     -84.9190
      XZZZ      -0.1615   YZZZ       0.0035   ZZZZ     -65.0832
 -----------------------------------------------------------------
Archival summary:
1\1\nia1977.scinet.local\SP\ProcedureUnspecified\6-31G*\2197\rhickman\MonFeb717:19:442022MonFeb717:19:442022\0\\#,ProcedureUnspecified,6-31G*,\\0,1\F\C,1,1.32561\C,2,1.32563,1,127.983\H,3,1.08102,2,115.32,1,-180,0\F,2,1.33082,1,109.012,3,-179.995,0\C,3,1.45041,2,128.174,1,0,0\C,6,1.39924,3,119.005,2,179.965,0\H,7,1.08129,6,119.742,3,0.00956184,0\C,7,1.37776,6,119.949,3,-179.997,0\H,9,1.07807,7,120.257,6,-179.972,0\C,9,1.39922,7,118.997,6,-0.00401763,0\N,11,1.33507,9,121.026,7,-0.0263882,0\C,12,1.31246,11,119.936,9,0.0391522,0\H,13,1.08055,12,114.952,11,179.988,0\C,11,1.45651,9,124.194,7,179.995,0\H,15,1.08137,11,113.123,9,179.537,0\C,15,1.32783,11,126.489,9,-0.529071,0\H,17,1.07636,15,121.192,11,-179.973,0\H,17,1.07697,15,122.951,11,-0.013084,0\\\@

 Total job time:  21.35s(wall), 21.27s(cpu) 
 Mon Feb  7 17:19:44 2022

        *************************************************************
        *                                                           *
        *  Thank you very much for using Q-Chem.  Have a nice day.  *
        *                                                           *
        *************************************************************


