
Running Job 1 of 1 fragments/C051/conf-0/spe_input.inp
qchem fragments/C051/conf-0/spe_input.inp_315866.0 /gpfs/fs0/scratch/a/aspuru/rhickman/descriptor_computation/qchem315866/ 0
/scinet/niagara/software/commercial/qc52/exe/qcprog.exe_s fragments/C051/conf-0/spe_input.inp_315866.0 /gpfs/fs0/scratch/a/aspuru/rhickman/descriptor_computation/qchem315866/
                  Welcome to Q-Chem
     A Quantum Leap Into The Future Of Chemistry


 Q-Chem 5.2, Q-Chem, Inc., Pleasanton, CA (2019)

 License issued to: SRG Alan Aspuru-Guzik, University of Toronto

 Yihan Shao,  Zhengting Gan,  E. Epifanovsky,  A. T. B. Gilbert,  M. Wormit,  
 J. Kussmann,  A. W. Lange,  A. Behn,  Jia Deng,  Xintian Feng,  D. Ghosh,  
 M. Goldey,  P. R. Horn,  L. D. Jacobson,  I. Kaliman,  T. Kus,  A. Landau,  
 Jie Liu,  E. I. Proynov,  R. M. Richard,  R. P. Steele,  E. J. Sundstrom,  
 H. L. Woodcock III,  P. M. Zimmerman,  D. Zuev,  B. Albrecht,  E. Alguire,  
 S. A. Baeppler,  D. Barton,  Z. Benda,  Y. A. Bernard,  E. J. Berquist,  
 K. B. Bravaya,  H. Burton,  D. Casanova,  Chun-Min Chang,  Yunqing Chen,  
 A. Chien,  K. D. Closser,  M. P. Coons,  S. Coriani,  S. Dasgupta,  
 A. L. Dempwolff,  M. Diedenhofen,  Hainam Do,  R. G. Edgar,  Po-Tung Fang,  
 S. Faraji,  S. Fatehi,  Qingguo Feng,  K. D. Fenk,  J. Fosso-Tande,  
 J. Gayvert,  Qinghui Ge,  A. Ghysels,  G. Gidofalvi,  J. Gomes,  
 J. Gonthier,  A. Gunina,  D. Hait,  M. W. D. Hanson-Heine,  
 P. H. P. Harbach,  A. W. Hauser,  M. F. Herbst,  J. E. Herr,  
 E. G. Hohenstein,  Z. C. Holden,  Kerwin Hui,  B. C. Huynh,  T.-C. Jagau,  
 Hyunjun Ji,  B. Kaduk,  K. Khistyaev,  Jaehoon Kim,  P. Klunzinger,  K. Koh,  
 D. Kosenkov,  L. Koulias,  T. Kowalczyk,  C. M. Krauter,  A. Kunitsa,  
 Ka Un Lao,  A. Laurent,  K. V. Lawler,  Joonho Lee,  D. Lefrancois,  
 S. Lehtola,  D. S. Levine,  Yi-Pei Li,  You-Sheng Lin,  Fenglai Liu,  
 E. Livshits,  A. Luenser,  P. Manohar,  E. Mansoor,  S. F. Manzer,  
 Shan-Ping Mao,  Yuezhi Mao,  N. Mardirossian,  A. V. Marenich,  
 T. Markovich,  L. A. Martinez-Martinez,  S. A. Maurer,  N. J. Mayhall,  
 S. C. McKenzie,  J.-M. Mewes,  P. Morgante,  A. F. Morrison,  
 J. W. Mullinax,  K. Nanda,  T. S. Nguyen-Beck,  R. Olivares-Amaya,  
 J. A. Parkhill,  Zheng Pei,  T. M. Perrine,  F. Plasser,  P. Pokhilko,  
 S. Prager,  A. Prociuk,  E. Ramos,  D. R. Rehn,  F. Rob,  M. Scheurer,  
 M. Schneider,  N. Sergueev,  S. M. Sharada,  S. Sharma,  D. W. Small,  
 T. Stauch,  T. Stein,  Yu-Chuan Su,  A. J. W. Thom,  A. Tkatchenko,  
 T. Tsuchimochi,  N. M. Tubman,  L. Vogt,  M. L. Vidal,  O. Vydrov,  
 M. A. Watson,  J. Wenzel,  M. de Wergifosse,  T. A. Wesolowski,  A. White,  
 J. Witte,  A. Yamada,  Jun Yang,  K. Yao,  S. Yeganeh,  S. R. Yost,  
 Zhi-Qiang You,  A. Zech,  Igor Ying Zhang,  Xing Zhang,  Yan Zhao,  
 Ying Zhu,  B. R. Brooks,  G. K. L. Chan,  C. J. Cramer,  M. S. Gordon,  
 W. J. Hehre,  A. Klamt,  M. W. Schmidt,  C. D. Sherrill,  D. G. Truhlar,  
 A. Aspuru-Guzik,  R. Baer,  A. T. Bell,  N. A. Besley,  Jeng-Da Chai,  
 A. E. DePrince, III,  R. A. DiStasio Jr.,  A. Dreuw,  B. D. Dunietz,  
 T. R. Furlani,  Chao-Ping Hsu,  Yousung Jung,  Jing Kong,  D. S. Lambrecht,  
 WanZhen Liang,  C. Ochsenfeld,  V. A. Rassolov,  L. V. Slipchenko,  
 J. E. Subotnik,  T. Van Voorhis,  J. M. Herbert,  A. I. Krylov,  
 P. M. W. Gill,  M. Head-Gordon

 Contributors to earlier versions of Q-Chem not listed above: 
 R. D. Adamson,  B. Austin,  J. Baker,  G. J. O. Beran,  K. Brandhorst,  
 S. T. Brown,  E. F. C. Byrd,  A. K. Chakraborty,  C.-L. Cheng,  
 Siu Hung Chien,  D. M. Chipman,  D. L. Crittenden,  H. Dachsel,  
 R. J. Doerksen,  A. D. Dutoi,  L. Fusti-Molnar,  W. A. Goddard III,  
 A. Golubeva-Zadorozhnaya,  S. R. Gwaltney,  G. Hawkins,  A. Heyden,  
 S. Hirata,  G. Kedziora,  F. J. Keil,  C. Kelley,  Jihan Kim,  R. A. King,  
 R. Z. Khaliullin,  P. P. Korambath,  W. Kurlancheek,  A. M. Lee,  M. S. Lee,  
 S. V. Levchenko,  Ching Yeh Lin,  D. Liotard,  R. C. Lochan,  I. Lotan,  
 P. E. Maslen,  N. Nair,  D. P. O'Neill,  D. Neuhauser,  E. Neuscamman,  
 C. M. Oana,  R. Olson,  B. Peters,  R. Peverati,  P. A. Pieniazek,  
 Y. M. Rhee,  J. Ritchie,  M. A. Rohrdanz,  E. Rosta,  N. J. Russ,  
 H. F. Schaefer III,  N. E. Schultz,  N. Shenvi,  A. C. Simmonett,  A. Sodt,  
 D. Stuck,  K. S. Thanthiriwatte,  V. Vanovschi,  Tao Wang,  A. Warshel,  
 C. F. Williams,  Q. Wu,  X. Xu,  W. Zhang

 Please cite Q-Chem as follows:
 Y. Shao et al., Mol. Phys. 113, 184-215 (2015)
 DOI: 10.1080/00268976.2014.952696

 Q-Chem 5.2.1 for Intel X86 EM64T Linux

 Parts of Q-Chem use Armadillo 8.300.2 (Tropical Shenanigans).
 http://arma.sourceforge.net/

 Q-Chem begins on Tue Feb  8 14:12:29 2022  

Host: 
0

     Scratch files written to /gpfs/fs0/scratch/a/aspuru/rhickman/descriptor_computation/qchem315866//
 Jul1719 |scratch|qcdevops|jenkins|workspace|build_RNUM -1
Processing $rem in /scinet/niagara/software/commercial/qc52/config/preferences:
	 MEM_TOTAL  4000 
NAlpha2: 108
NElect   108
Mult     1

Checking the input file for inconsistencies... 	...done.

--------------------------------------------------------------
User input:
--------------------------------------------------------------
$molecule
0 1
C        -4.38034102460000    0.54081405660000    0.48641282700000
C        -3.52243505400000   -0.24155881150000   -0.15834544690000
C        -2.06898943140000   -0.12534634780000   -0.14033083550000
C        -1.29437513890000   -1.26993330860000   -0.22625305790000
C         0.10221866760000   -1.22874216800000   -0.16140151340000
C         0.89419474840000   -2.44803238960000   -0.25504975330000
C         0.49105700510000   -3.63648751220000    0.17701104210000
C         0.67406139030000    0.04615068750000   -0.03162825660000
C         2.14142298640000    0.25065498060000    0.10433734420000
O         2.94366593250000   -0.60070448740000    0.40890683200000
O         2.48547434760000    1.51649864300000   -0.15124086050000
C         3.86336263700000    1.81994169300000   -0.01319531990000
N        -0.04929869650000    1.15965418030000   -0.01446272020000
C        -1.36983476560000    1.10815621360000   -0.06844492290000
N        -2.00683754240000    2.31560839200000   -0.03344898140000
H        -5.44141715790000    0.36291123840000    0.43714171860000
H        -4.05948092110000    1.34888712570000    1.12130406350000
H        -3.89738548100000   -1.08713606510000   -0.72361293370000
H        -1.78491953390000   -2.22599977470000   -0.34212649280000
H         1.88039756990000   -2.33941568290000   -0.68149515310000
H        -0.45894288090000   -3.78372209810000    0.66430308880000
H         1.11534300360000   -4.50786231090000    0.08240236880000
H         3.96634083410000    2.87805521950000   -0.23946300840000
H         4.45822512640000    1.22003102640000   -0.70620197890000
H         4.20001703810000    1.60995109690000    1.00456281590000
H        -1.39626953200000    3.10386084510000   -0.18073381230000
H        -2.92583260620000    2.36924958440000   -0.44164237030000
$end

$rem
BASIS = 6-31G*
GUI = 2
METHOD = B3LYP
PRINT_ORBITALS false
MOLDEN_FORMAT false
--------------------------------------------------------------
 ----------------------------------------------------------------
             Standard Nuclear Orientation (Angstroms)
    I     Atom           X                Y                Z
 ----------------------------------------------------------------
    1      C       4.3574363451    -0.5807001368     0.4747212563
    2      C       3.5041512345     0.2089503281    -0.1672910910
    3      C       2.0498734140     0.1043636876    -0.1455725176
    4      C       1.2842274836     1.2551722483    -0.2287302425
    5      C      -0.1124783249     1.2251177877    -0.1602736351
    6      C      -0.8949073829     2.4507713933    -0.2510632735
    7      C      -0.4811473549     3.6356692805     0.1807257788
    8      C      -0.6941711756    -0.0452442474    -0.0298484930
    9      C      -2.1627652302    -0.2380881738     0.1097990180
   10      O      -2.9573729963     0.6194596645     0.4170114271
   11      O      -2.5176025094    -1.5009643119    -0.1457124307
   12      C      -3.8975131637    -1.7934614059    -0.0042824832
   13      N       0.0202927721    -1.1645136164    -0.0152935486
   14      C       1.3410542682    -1.1235511949    -0.0726762920
   15      N       1.9684580594    -2.3360870104    -0.0401279329
   16      H       5.4197713611    -0.4112632535     0.4228071754
   17      H       4.0317657591    -1.3866077598     1.1099155146
   18      H       3.8843912060     1.0518809111    -0.7329779678
   19      H       1.7821083352     2.2073595497    -0.3452529642
   20      H      -1.8830517252     2.3503404868    -0.6750133469
   21      H       0.4712624479     3.7749654972     0.6656417271
   22      H      -1.0986802867     4.5120770463     0.0883117384
   23      H      -4.0095465876    -2.8505636086    -0.2309744679
   24      H      -4.4893501895    -1.1883402118    -0.6953466582
   25      H      -4.2298328155    -1.5814704802     1.0144850838
   26      H       1.3512183948    -3.1193271623    -0.1863404744
   27      H       2.8859316458    -2.3968068490    -0.4507451112
 ----------------------------------------------------------------
 Molecular Point Group                 C1    NOp =  1
 Largest Abelian Subgroup              C1    NOp =  1
 Nuclear Repulsion Energy =         952.78848637 hartrees
 There are       54 alpha and       54 beta electrons
 Requested basis set is 6-31G(d)
 There are 84 shells and 249 basis functions

 Total QAlloc Memory Limit   4000 MB
 Mega-Array Size       188 MB
 MEM_STATIC part       192 MB
 A cutoff of  1.0D-08 yielded   2147 shell pairs
 There are     21196 function pairs
 Smallest overlap matrix eigenvalue = 5.17E-04

 Scale SEOQF with 1.000000e-02/1.000000e-01/1.000000e+00

 Standard Electronic Orientation quadrupole field applied
 Nucleus-field energy     =     0.0000000145 hartrees
 Guess from superposition of atomic densities
 Warning:  Energy on first SCF cycle will be non-variational
 SAD guess density has 108.000000 electrons

 -----------------------------------------------------------------------
  General SCF calculation program by
  Eric Jon Sundstrom, Paul Horn, Yuezhi Mao, Dmitri Zuev, Alec White,
  David Stuck, Shaama M.S., Shane Yost, Joonho Lee, David Small,
  Daniel Levine, Susi Lehtola, Hugh Burton, Evgeny Epifanovsky,
  Bang C. Huynh
 -----------------------------------------------------------------------
 Exchange:     0.2000 Hartree-Fock + 0.0800 Slater + 0.7200 B88
 Correlation:  0.1900 VWN1RPA + 0.8100 LYP
 Using SG-1 standard quadrature grid
 A restricted SCF calculation will be
 performed using DIIS
 SCF converges when DIIS error is below 1.0e-05
 ---------------------------------------
  Cycle       Energy         DIIS error
 ---------------------------------------
    1    -689.8047718517      5.24e-02  
    2    -686.0525444504      6.07e-03  
    3    -685.8173426698      8.89e-03  
    4    -686.2772702963      2.37e-03  
    5    -686.3123102274      5.98e-04  
    6    -686.3139986652      2.60e-04  
    7    -686.3144184281      6.79e-05  
    8    -686.3144490771      2.77e-05  
    9    -686.3144547662      6.16e-06  Convergence criterion met
 ---------------------------------------
 SCF time:   CPU 43.34s  wall 44.00s 
 SCF   energy in the final basis set =     -686.3144547662
 Total energy in the final basis set =     -686.3144547662
 
 --------------------------------------------------------------
 
                    Orbital Energies (a.u.)
 --------------------------------------------------------------
 
 Alpha MOs
 -- Occupied --
-19.1826 -19.1284 -14.3466 -14.3208 -10.3061 -10.2625 -10.2322 -10.2291
-10.2058 -10.2042 -10.2027 -10.1985 -10.1904 -10.1819 -10.1723  -1.1029
 -1.0103  -0.9743  -0.9001  -0.8332  -0.8034  -0.7600  -0.7431  -0.7148
 -0.6541  -0.6398  -0.5983  -0.5774  -0.5537  -0.5379  -0.5316  -0.4891
 -0.4821  -0.4797  -0.4753  -0.4577  -0.4551  -0.4301  -0.4272  -0.4111
 -0.4027  -0.3962  -0.3872  -0.3751  -0.3509  -0.3457  -0.3319  -0.3161
 -0.2943  -0.2818  -0.2780  -0.2512  -0.2446  -0.2040
 -- Virtual --
 -0.0567  -0.0198   0.0107   0.0535   0.0740   0.1002   0.1072   0.1205
  0.1333   0.1408   0.1430   0.1450   0.1560   0.1651   0.1770   0.1865
  0.1891   0.2011   0.2133   0.2603   0.2699   0.2925   0.3086   0.3188
  0.3231   0.3383   0.3531   0.3680   0.3897   0.4138   0.4247   0.4488
  0.4946   0.5030   0.5222   0.5272   0.5350   0.5473   0.5502   0.5568
  0.5668   0.5843   0.5864   0.6030   0.6056   0.6130   0.6206   0.6339
  0.6417   0.6591   0.6623   0.6772   0.6881   0.6984   0.7047   0.7124
  0.7224   0.7363   0.7444   0.7631   0.7882   0.8110   0.8294   0.8486
  0.8542   0.8552   0.8587   0.8669   0.8753   0.8820   0.8969   0.9117
  0.9258   0.9281   0.9421   0.9576   0.9638   0.9778   0.9852   0.9924
  1.0043   1.0246   1.0355   1.0517   1.0696   1.0934   1.1050   1.1172
  1.1276   1.1609   1.1694   1.1931   1.2149   1.2432   1.2600   1.2969
  1.2993   1.3319   1.3383   1.3697   1.3871   1.4142   1.4254   1.4724
  1.4820   1.5114   1.5283   1.5338   1.5378   1.5655   1.5812   1.6155
  1.6654   1.6729   1.6877   1.6896   1.7153   1.7282   1.7571   1.7973
  1.8077   1.8234   1.8580   1.8631   1.9004   1.9023   1.9119   1.9486
  1.9657   1.9891   1.9973   2.0069   2.0168   2.0349   2.0736   2.0902
  2.0960   2.1169   2.1316   2.1482   2.1561   2.2005   2.2086   2.2258
  2.2335   2.2666   2.2896   2.3158   2.3174   2.3285   2.3590   2.3619
  2.3992   2.4110   2.4466   2.4671   2.4696   2.5041   2.5089   2.5765
  2.5787   2.6417   2.6487   2.6708   2.6915   2.7123   2.7254   2.7430
  2.7691   2.8033   2.8932   2.9104   2.9284   2.9765   3.0227   3.0395
  3.1556   3.1821   3.3445   3.5058   3.8860   3.9929   4.0880   4.1026
  4.1355   4.1561   4.2147   4.2554   4.2757   4.3029   4.3374   4.4635
  4.5433   4.5969   4.7580
 --------------------------------------------------------------
 
          Ground-State Mulliken Net Atomic Charges

     Atom                 Charge (a.u.)
  ----------------------------------------
      1 C                    -0.365322
      2 C                    -0.139352
      3 C                     0.146807
      4 C                    -0.230254
      5 C                     0.122250
      6 C                    -0.101781
      7 C                    -0.350556
      8 C                     0.166876
      9 C                     0.595484
     10 O                    -0.492358
     11 O                    -0.429496
     12 C                    -0.215799
     13 N                    -0.555414
     14 C                     0.425123
     15 N                    -0.775754
     16 H                     0.148741
     17 H                     0.169294
     18 H                     0.141526
     19 H                     0.140938
     20 H                     0.157026
     21 H                     0.136271
     22 H                     0.143816
     23 H                     0.162892
     24 H                     0.163733
     25 H                     0.167243
     26 H                     0.339652
     27 H                     0.328412
  ----------------------------------------
  Sum of atomic charges =     0.000000

 -----------------------------------------------------------------
                    Cartesian Multipole Moments
 -----------------------------------------------------------------
    Charge (ESU x 10^10)
                 0.0000
    Dipole Moment (Debye)
         X       2.5138      Y      -1.6078      Z      -1.3782
       Tot       3.2869
    Quadrupole Moments (Debye-Ang)
        XX     -74.6514     XY       3.8046     YY     -78.4237
        XZ       0.2864     YZ       0.2590     ZZ     -88.2279
    Octopole Moments (Debye-Ang^2)
       XXX      -3.4567    XXY     -41.3432    XYY      -0.1001
       YYY     -26.7958    XXZ     -11.5568    XYZ       6.5301
       YYZ      -4.9608    XZZ     -11.1943    YZZ      -8.0104
       ZZZ       1.2843
    Hexadecapole Moments (Debye-Ang^3)
      XXXX   -2794.7680   XXXY     101.6348   XXYY    -689.2883
      XYYY     -22.6692   YYYY   -1384.6770   XXXZ      13.9231
      XXYZ     -16.7682   XYYZ      -8.3115   YYYZ      32.8436
      XXZZ    -540.9703   XYZZ       4.5263   YYZZ    -292.0096
      XZZZ      -6.1953   YZZZ       1.6327   ZZZZ    -126.2780
 -----------------------------------------------------------------
Archival summary:
1\1\nia2015.scinet.local\SP\ProcedureUnspecified\6-31G*\221112\rhickman\TueFeb814:13:132022TueFeb814:13:132022\0\\#,ProcedureUnspecified,6-31G*,\\0,1\N\C,1,1.32264\C,1,1.32794,2,120.709\N,2,1.36563,1,115.483,3,179.508,0\H,4,1.007,2,117.542,1,155.214,0\H,4,1.00788,2,113.903,1,13.154,0\C,3,1.40328,1,122.753,2,2.67278,0\C,7,1.39871,3,115.972,1,-2.16418,0\H,8,1.0808,7,118.961,3,179.044,0\C,8,1.38473,7,122.095,3,-1.26964,0\C,7,1.45694,3,123.007,1,176.507,0\H,11,1.07993,7,115.952,3,-28.0624,0\C,11,1.32726,7,124.287,3,150.04,0\H,13,1.07609,11,121.349,7,179.904,0\H,13,1.07779,11,122.495,7,-1.86058,0\C,10,1.4582,8,119.402,7,-177.439,0\H,16,1.08403,10,114.417,8,-30.0639,0\C,16,1.32809,10,126.222,8,146.831,0\H,18,1.07658,16,122.408,10,-1.41336,0\H,18,1.07701,16,121.124,10,-178.251,0\C,3,1.48777,1,114.886,2,-177.034,0\O,21,1.20879,3,125.506,1,162.537,0\O,21,1.33643,3,111.508,1,-17.2997,0\C,23,1.41764,21,115.743,3,178.41,0\H,24,1.08692,23,106.271,21,-179.168,0\H,24,1.09237,23,110.434,21,-59.1718,0\H,24,1.09271,23,110.478,21,60.888,0\\\@

 Total job time:  43.68s(wall), 43.55s(cpu) 
 Tue Feb  8 14:13:13 2022

        *************************************************************
        *                                                           *
        *  Thank you very much for using Q-Chem.  Have a nice day.  *
        *                                                           *
        *************************************************************


