
Running Job 1 of 1 tidas/B050/conf-1/spe_input.inp
qchem tidas/B050/conf-1/spe_input.inp_134530.0 /home/a/aspuru/seifridm/acdc_laser/descriptor_computation/qchem134530/ 0
/gpfs/fs1/scinet/niagara/software/commercial/qc54/exe/qcprog.exe_s tidas/B050/conf-1/spe_input.inp_134530.0 /home/a/aspuru/seifridm/acdc_laser/descriptor_computation/qchem134530/
                  Welcome to Q-Chem
     A Quantum Leap Into The Future Of Chemistry


 Q-Chem 5.4, Q-Chem, Inc., Pleasanton, CA (2021)

 License issued to: SRG Alan Aspuru-Guzik, University of Toronto

 E. Epifanovsky,  A. T. B. Gilbert,  Xintian Feng,  Joonho Lee,  Yuezhi Mao,  
 N. Mardirossian,  P. Pokhilko,  A. White,  M. Wormit,  M. P. Coons,  
 A. L. Dempwolff,  Zhengting Gan,  D. Hait,  P. R. Horn,  L. D. Jacobson,  
 I. Kaliman,  J. Kussmann,  A. W. Lange,  Ka Un Lao,  D. S. Levine,  Jie Liu,  
 S. C. McKenzie,  A. F. Morrison,  K. Nanda,  F. Plasser,  D. R. Rehn,  
 M. L. Vidal,  Zhi-Qiang You,  Ying Zhu,  B. Alam,  B. Albrecht,  
 A. Aldossary,  E. Alguire,  J. H. Andersen,  D. Barton,  K. Begam,  A. Behn,  
 Y. A. Bernard,  E. J. Berquist,  H. Burton,  A. Carreras,  K. Carter-Fenk,  
 Romit Chakraborty,  A. D. Chien,  K. D. Closser,  V. Cofer-Shabica,  
 S. Dasgupta,  Jia Deng,  M. de Wergifosse,  M. Diedenhofen,  Hainam Do,  
 S. Ehlert,  Po-Tung Fang,  S. Fatehi,  Qingguo Feng,  T. Friedhoff,  
 J. Gayvert,  Qinghui Ge,  G. Gidofalvi,  M. Goldey,  J. Gomes,  
 C. Gonzalez-Espinoza,  S. Gulania,  A. Gunina,  M. W. D. Hanson-Heine,  
 P. H. P. Harbach,  A. W. Hauser,  M. F. Herbst,  M. Hernandez Vera,  
 M. Hodecker,  Z. C. Holden,  S. Houck,  Xunkun Huang,  Kerwin Hui,  
 B. C. Huynh,  M. Ivanov,  Hyunjun Ji,  Hanjie Jiang,  B. Kaduk,  S. Kaehler,  
 K. Khistyaev,  Jaehoon Kim,  P. Klunzinger,  Z. Koczor-Benda,  
 Joong Hoon Koh,  D. Kosenkov,  L. Koulias,  T. Kowalczyk,  C. M. Krauter,  
 K. Kue,  A. Kunitsa,  T. Kus,  A. Landau,  K. V. Lawler,  D. Lefrancois,  
 S. Lehtola,  Rain Li,  Yi-Pei Li,  Jiashu Liang,  M. Liebenthal,  
 Hung-Hsuan Lin,  You-Sheng Lin,  Fenglai Liu,  Kuan-Yu Liu,  
 M. Loipersberger,  A. Luenser,  A. Manjanath,  P. Manohar,  E. Mansoor,  
 S. F. Manzer,  Shan-Ping Mao,  A. V. Marenich,  T. Markovich,  S. Mason,  
 S. A. Maurer,  P. F. McLaughlin,  M. F. S. J. Menger,  J.-M. Mewes,  
 S. A. Mewes,  P. Morgante,  J. W. Mullinax,  K. J. Oosterbaan,  G. Paran,  
 Alexander C. Paul,  Suranjan K. Paul,  F. Pavosevic,  Zheng Pei,  S. Prager,  
 E. I. Proynov,  E. Ramos,  B. Rana,  A. E. Rask,  A. Rettig,  R. M. Richard,  
 F. Rob,  E. Rossomme,  T. Scheele,  M. Scheurer,  M. Schneider,  
 N. Sergueev,  S. M. Sharada,  W. Skomorowski,  D. W. Small,  C. J. Stein,  
 Yu-Chuan Su,  E. J. Sundstrom,  Zhen Tao,  J. Thirman,  T. Tsuchimochi,  
 N. M. Tubman,  S. P. Veccham,  O. Vydrov,  J. Wenzel,  J. Witte,  A. Yamada,  
 Kun Yao,  S. Yeganeh,  S. R. Yost,  A. Zech,  Igor Ying Zhang,  Xing Zhang,  
 Yu Zhang,  D. Zuev,  A. Aspuru-Guzik,  A. T. Bell,  N. A. Besley,  
 K. B. Bravaya,  B. R. Brooks,  D. Casanova,  Jeng-Da Chai,  S. Coriani,  
 C. J. Cramer,  A. E. DePrince, III,  R. A. DiStasio Jr.,  A. Dreuw,  
 B. D. Dunietz,  T. R. Furlani,  W. A. Goddard III,  S. Grimme,  
 S. Hammes-Schiffer,  T. Head-Gordon,  W. J. Hehre,  Chao-Ping Hsu,  
 T.-C. Jagau,  Yousung Jung,  A. Klamt,  Jing Kong,  D. S. Lambrecht,  
 WanZhen Liang,  N. J. Mayhall,  C. W. McCurdy,  J. B. Neaton,  T. Neudecker,  
 C. Ochsenfeld,  J. A. Parkhill,  R. Peverati,  V. A. Rassolov,  Yihan Shao,  
 L. V. Slipchenko,  R. P. Steele,  J. E. Subotnik,  A. J. W. Thom,  
 A. Tkatchenko,  D. G. Truhlar,  T. Van Voorhis,  T. A. Wesolowski,  
 K. B. Whaley,  H. L. Woodcock III,  P. M. Zimmerman,  S. Faraji,  
 P. M. W. Gill,  M. Head-Gordon,  J. M. Herbert,  A. I. Krylov

 Additional authors since Version 5.4.0: 
 Chandrima Chakravarty,  L. Cunha,  R. Kang,  Yongbin Kim,  S. Kotaru,  
 Shaozhi Li,  Xiangyuan Li,  F. Matz,  A. Molle,  V. Parravicini,  
 Haisheng Ren,  Hengyuan Shen,  Yingli Su,  Hung-Yi Tsai,  C. Utku,  
 Fang Wang,  Jeff Yang,  F. Zeller

 Contributors to earlier versions of Q-Chem not listed above: 
 R. D. Adamson,  B. Austin,  R. Baer,  J. Baker,  G. J. O. Beran,  
 K. Brandhorst,  S. T. Brown,  E. F. C. Byrd,  Arup K. Chakraborty,  
 G. K. L. Chan,  Chun-Min Chang,  Yunqing Chen,  C.-L. Cheng,  
 Siu Hung Chien,  D. M. Chipman,  D. L. Crittenden,  H. Dachsel,  
 R. J. Doerksen,  A. D. Dutoi,  R. G. Edgar,  J. Fosso-Tande,  
 L. Fusti-Molnar,  D. Ghosh,  A. Ghysels,  A. Golubeva-Zadorozhnaya,  
 J. Gonthier,  M. S. Gordon,  S. R. Gwaltney,  G. Hawkins,  J. E. Herr,  
 A. Heyden,  S. Hirata,  E. G. Hohenstein,  G. Kedziora,  F. J. Keil,  
 C. Kelley,  Jihan Kim,  R. A. King,  R. Z. Khaliullin,  P. P. Korambath,  
 W. Kurlancheek,  A. Laurent,  A. M. Lee,  M. S. Lee,  S. V. Levchenko,  
 Ching Yeh Lin,  D. Liotard,  E. Livshits,  R. C. Lochan,  I. Lotan,  
 L. A. Martinez-Martinez,  P. E. Maslen,  N. Nair,  D. P. O'Neill,  
 D. Neuhauser,  E. Neuscamman,  C. M. Oana,  R. Olivares-Amaya,  R. Olson,  
 T. M. Perrine,  B. Peters,  P. A. Pieniazek,  A. Prociuk,  Y. M. Rhee,  
 J. Ritchie,  M. A. Rohrdanz,  E. Rosta,  N. J. Russ,  H. F. Schaefer III,  
 M. W. Schmidt,  N. E. Schultz,  S. Sharma,  N. Shenvi,  C. D. Sherrill,  
 A. C. Simmonett,  A. Sodt,  T. Stein,  D. Stuck,  K. S. Thanthiriwatte,  
 V. Vanovschi,  L. Vogt,  Tao Wang,  A. Warshel,  M. A. Watson,  
 C. F. Williams,  Q. Wu,  X. Xu,  Jun Yang,  W. Zhang,  Yan Zhao

   Please cite Q-Chem as follows:
  "Software for the frontiers of quantum chemistry:
   An overview of developments in the Q-Chem 5 package"
   J. Chem. Phys. 155, 084801 (2021)
   https://doi.org/10.1063/5.0055522 (open access)

 Q-Chem 5.4.2 for Intel X86 EM64T Linux

 Parts of Q-Chem use Armadillo 9.900.5 (Nocturnal Misbehaviour).
 http://arma.sourceforge.net/

 Q-Chem begins on Fri Aug 12 13:11:43 2022  

 Host: 
0

     Scratch files written to /home/a/aspuru/seifridm/acdc_laser/descriptor_computation/qchem134530//
 Dec1321 |scratch|qcdevops|jenkins|workspace|build_RNUM 6959   
 Processing $rem in /gpfs/fs1/scinet/niagara/software/commercial/qc54/config/preferences:
 Processing $rem in /home/a/aspuru/seifridm/.qchemrc:

 Checking the input file for inconsistencies... 	...done.

--------------------------------------------------------------
User input:
--------------------------------------------------------------
$molecule
0 1
C            0.05621806580000        4.16378688990000       -0.04730598430000
C           -0.81122699000000        3.15947048940000       -0.02662887060000
C           -0.49283863910000        1.73573534220000        0.02446381530000
C           -1.54309371530000        0.81812849900000       -0.00607588750000
C           -1.31472400040000       -0.55653018470000        0.03749620030000
C           -2.37833812090000       -1.54980541030000        0.00612685640000
C           -3.68629496390000       -1.35560211870000       -0.07033605740000
F           -4.33980381070000       -0.20178101840000       -0.13635823180000
F           -4.56969088670000       -2.35028925530000       -0.09262904630000
C            0.00036247340000       -1.01066530680000        0.11548182280000
C            1.05716921040000       -0.10880328970000        0.14904023520000
C            2.43601246170000       -0.65777313020000        0.23320596460000
O            2.68786711640000       -1.83767858750000        0.27050610260000
O            3.36638485770000        0.30352965570000        0.27460910430000
C            4.72798552390000       -0.11982644800000        0.34160388140000
C            5.27341253510000       -0.46346784880000       -1.03711725880000
C            0.81435502750000        1.25768430460000        0.10338923190000
H           -0.27672914090000        5.18658088430000       -0.08679843100000
H            1.12232989350000        4.01703422890000       -0.02775613740000
H           -1.87100138630000        3.38048728300000       -0.05265394450000
H           -2.55159507170000        1.19546335790000       -0.06602962640000
H           -2.06816985680000       -2.58373223310000        0.04984859560000
H            0.22288231580000       -2.06637409670000        0.15223608360000
H            4.79632067020000       -0.99039015290000        1.00228718480000
H            5.26529629780000        0.72398899720000        0.77969462260000
H            4.73345278020000       -1.31307200870000       -1.44771197500000
H            6.32590224570000       -0.72003119870000       -0.95843532430000
H            5.16243486890000        0.38454544810000       -1.70879979000000
H            1.64927386190000        1.93749592130000        0.13244048830000
$end

$rem
BASIS = 6-31G*
GUI = 2
METHOD = B3LYP
PRINT_ORBITALS false
MOLDEN_FORMAT false
$end
--------------------------------------------------------------
 ----------------------------------------------------------------
             Standard Nuclear Orientation (Angstroms)
    I     Atom           X                Y                Z
 ----------------------------------------------------------------
    1      C       0.3116110198    -4.1058555849     0.0455360093
    2      C      -0.6450717559    -3.1860631000     0.0288102337
    3      C      -0.4599769556    -1.7390969415    -0.0262554094
    4      C      -1.5903590312    -0.9224394036     0.0094873682
    5      C      -1.4903135697     0.4673545495    -0.0374319624
    6      C      -2.6409873578     1.3581231778    -0.0008834843
    7      C      -3.9249055120     1.0440028522     0.0839409988
    8      F      -4.4685417001    -0.1651524206     0.1556284666
    9      F      -4.8963213512     1.9528177284     0.1102966756
   10      C      -0.2233348680     1.0409493942    -0.1241892314
   11      C       0.9120969748     0.2405688833    -0.1630133500
   12      C       2.2337540794     0.9144733545    -0.2564784713
   13      O       2.3752251417     2.1125314262    -0.2969969986
   14      O       3.2487429758     0.0432043451    -0.3022814704
   15      C       4.5649474445     0.5904731919    -0.3782924630
   16      C       5.0845725243     0.9857800967     0.9965436170
   17      C       0.7969263231    -1.1424200359    -0.1139373131
   18      H       0.0748852759    -5.1549665118     0.0885271251
   19      H       1.3594538240    -3.8612250322     0.0191860631
   20      H      -1.6797000438    -3.5040411255     0.0617006516
   21      H      -2.5592795109    -1.3912596170     0.0762087596
   22      H      -2.4279972611     2.4162053516    -0.0479785971
   23      H      -0.0995878886     2.1126322929    -0.1638055761
   24      H       4.5485271779     1.4623205725    -1.0406109692
   25      H       5.1753126408    -0.2009269608    -0.8185094504
   26      H       4.4708688499     1.7826450421     1.4092733654
   27      H       6.1083439418     1.3383751395     0.9109924000
   28      H       5.0565152984     0.1324666266     1.6700931184
   29      H       1.6909243234    -1.7422023243    -0.1471946709
 ----------------------------------------------------------------
 Molecular Point Group                 C1    NOp =  1
 Largest Abelian Subgroup              C1    NOp =  1
 Nuclear Repulsion Energy =        1131.97891312 hartrees
 There are       62 alpha and       62 beta electrons
 Requested basis set is 6-31G(d)
 There are 92 shells and 279 basis functions

 Total QAlloc Memory Limit   8000 MB
 Mega-Array Size       188 MB
 MEM_STATIC part       192 MB
 A cutoff of  1.0D-08 yielded   2292 shell pairs
 There are     22751 function pairs
 Smallest overlap matrix eigenvalue = 3.55E-04

 Scale SEOQF with 1.000000e-02/1.000000e-01/1.000000e-01

 Standard Electronic Orientation quadrupole field applied
 Nucleus-field energy     =     0.0000000294 hartrees
 Guess from superposition of atomic densities
 Warning:  Energy on first SCF cycle will be non-variational
 SAD guess density has 124.000000 electrons

 -----------------------------------------------------------------------
  General SCF calculation program by
  Eric Jon Sundstrom, Paul Horn, Yuezhi Mao, Dmitri Zuev, Alec White,
  David Stuck, Shaama M.S., Shane Yost, Joonho Lee, David Small,
  Daniel Levine, Susi Lehtola, Hugh Burton, Evgeny Epifanovsky,
  Bang C. Huynh
 -----------------------------------------------------------------------
 Exchange:     0.2000 Hartree-Fock + 0.0800 Slater + 0.7200 B88
 Correlation:  0.1900 VWN1RPA + 0.8100 LYP
 Using SG-1 standard quadrature grid
 A restricted SCF calculation will be
 performed using DIIS
 SCF converges when DIIS error is below 1.0e-05
 ---------------------------------------
  Cycle       Energy         DIIS error
 ---------------------------------------
    1    -856.4360717887      4.80e-02  
    2    -852.4017938946      5.84e-03  
    3    -852.0422983051      8.88e-03  
    4    -852.6819495649      1.94e-03  
    5    -852.7100918607      6.54e-04  
    6    -852.7130170197      2.51e-04  
    7    -852.7135665807      5.59e-05  
    8    -852.7135921300      1.92e-05  
    9    -852.7135964368      6.31e-06  Convergence criterion met
 ---------------------------------------
 SCF time:   CPU 79.87s  wall 85.00s 
 SCF   energy in the final basis set =     -852.7135964368
 Total energy in the final basis set =     -852.7135964368
 
 --------------------------------------------------------------
 
                    Orbital Energies (a.u.)
 --------------------------------------------------------------
 
 Alpha MOs
 -- Occupied --
-24.7490 -24.7381 -19.1925 -19.1336 -10.3615 -10.3148 -10.2438 -10.2138
-10.2069 -10.2050 -10.2047 -10.1978 -10.1974 -10.1971 -10.1959 -10.1858
-10.1807  -1.2902  -1.2289  -1.1096  -1.0183  -0.8809  -0.8214  -0.8026
 -0.7753  -0.7504  -0.7348  -0.6743  -0.6540  -0.6310  -0.6247  -0.5855
 -0.5706  -0.5504  -0.5377  -0.5235  -0.5131  -0.5017  -0.4888  -0.4706
 -0.4602  -0.4535  -0.4451  -0.4450  -0.4414  -0.4384  -0.4185  -0.4136
 -0.4071  -0.3952  -0.3826  -0.3790  -0.3723  -0.3605  -0.3538  -0.3406
 -0.3251  -0.3005  -0.2901  -0.2749  -0.2410  -0.2244
 -- Virtual --
 -0.0482  -0.0418   0.0042   0.0803   0.0874   0.0880   0.1078   0.1095
  0.1162   0.1338   0.1448   0.1480   0.1566   0.1603   0.1735   0.1793
  0.1879   0.1890   0.1908   0.2076   0.2246   0.2294   0.2710   0.2802
  0.2970   0.3017   0.3168   0.3236   0.3621   0.3873   0.4162   0.4304
  0.4524   0.4814   0.4893   0.4980   0.5083   0.5198   0.5239   0.5309
  0.5367   0.5453   0.5498   0.5533   0.5625   0.5655   0.5739   0.5793
  0.5892   0.5894   0.6047   0.6177   0.6228   0.6383   0.6510   0.6587
  0.6599   0.6812   0.6887   0.7062   0.7492   0.7634   0.7719   0.7756
  0.7900   0.7990   0.8121   0.8181   0.8278   0.8483   0.8596   0.8763
  0.8802   0.8928   0.8945   0.8995   0.9114   0.9380   0.9504   0.9557
  0.9595   0.9909   1.0022   1.0116   1.0149   1.0388   1.0640   1.0749
  1.1004   1.1136   1.1279   1.1360   1.1565   1.1691   1.1785   1.2014
  1.2114   1.2361   1.2377   1.2483   1.2901   1.3010   1.3052   1.3154
  1.3384   1.3457   1.3700   1.3869   1.3999   1.4035   1.4380   1.4526
  1.4566   1.4778   1.4900   1.5006   1.5074   1.5105   1.5238   1.5666
  1.5918   1.6536   1.6619   1.6703   1.6895   1.7173   1.7404   1.7507
  1.7778   1.7787   1.7880   1.7999   1.8189   1.8231   1.8329   1.8661
  1.8701   1.8897   1.8907   1.8938   1.9325   1.9345   1.9443   1.9610
  1.9775   1.9785   1.9887   2.0169   2.0222   2.0248   2.0572   2.0655
  2.0804   2.1097   2.1223   2.1416   2.1590   2.1658   2.1734   2.2051
  2.2195   2.2315   2.2416   2.2743   2.3056   2.3171   2.3186   2.3425
  2.3487   2.4008   2.4104   2.4360   2.4766   2.5175   2.5203   2.5313
  2.5402   2.5829   2.6059   2.6234   2.6294   2.6709   2.6782   2.6868
  2.7547   2.7793   2.7908   2.8467   2.8599   2.8683   2.9251   2.9750
  2.9923   3.0463   3.1025   3.1520   3.1717   3.2164   3.3347   3.4885
  3.9860   4.0739   4.0863   4.1102   4.1302   4.1454   4.1884   4.2355
  4.2594   4.3205   4.4348   4.4653   4.4996   4.5836   4.7359   4.8317
  5.3020
 --------------------------------------------------------------
 
          Ground-State Mulliken Net Atomic Charges

     Atom                 Charge (a.u.)
  ----------------------------------------
      1 C                    -0.352262
      2 C                    -0.111422
      3 C                     0.180212
      4 C                    -0.264874
      5 C                     0.195746
      6 C                    -0.295607
      7 C                     0.546366
      8 F                    -0.233693
      9 F                    -0.245595
     10 C                    -0.234458
     11 C                     0.047448
     12 C                     0.605354
     13 O                    -0.492659
     14 O                    -0.468647
     15 C                    -0.045558
     16 C                    -0.464733
     17 C                    -0.222563
     18 H                     0.147695
     19 H                     0.147469
     20 H                     0.130801
     21 H                     0.142651
     22 H                     0.166249
     23 H                     0.160020
     24 H                     0.168974
     25 H                     0.151487
     26 H                     0.179674
     27 H                     0.152129
     28 H                     0.156756
     29 H                     0.153040
  ----------------------------------------
  Sum of atomic charges =     0.000000

 -----------------------------------------------------------------
                    Cartesian Multipole Moments
 -----------------------------------------------------------------
    Charge (ESU x 10^10)
                -0.0000
    Dipole Moment (Debye)
         X       1.1684      Y      -1.5881      Z       0.1377
       Tot       1.9764
    Quadrupole Moments (Debye-Ang)
        XX     -87.3202     XY      -2.2105     YY     -95.1006
        XZ       0.0955     YZ       0.3173     ZZ     -97.9770
    Octopole Moments (Debye-Ang^2)
       XXX      56.0913    XXY      -3.8665    XYY     -28.0758
       YYY      -8.6428    XXZ      -3.3551    XYZ       1.9747
       YYZ       2.6152    XZZ     -11.9966    YZZ      14.0763
       ZZZ      -0.1808
    Hexadecapole Moments (Debye-Ang^3)
      XXXX   -4733.2512   XXXY      46.2696   XXYY   -1156.0054
      XYYY     -81.2965   YYYY   -1755.9115   XXXZ     -30.8264
      XXYZ       0.0749   XYYZ      -0.5906   YYYZ      -1.3994
      XXZZ    -847.0777   XYZZ     -13.5872   YYZZ    -361.6839
      XZZZ     -19.8108   YZZZ      -1.5387   ZZZZ    -171.7239
 -----------------------------------------------------------------
 Total job time:  88.83s(wall), 80.53s(cpu) 
 Fri Aug 12 13:13:11 2022

        *************************************************************
        *                                                           *
        *  Thank you very much for using Q-Chem.  Have a nice day.  *
        *                                                           *
        *************************************************************


