
Running Job 1 of 1 fragments/B025/conf-0/spe_input.inp
qchem fragments/B025/conf-0/spe_input.inp_351849.0 /gpfs/fs0/scratch/a/aspuru/rhickman/descriptor_computation/qchem351849/ 0
/scinet/niagara/software/commercial/qc52/exe/qcprog.exe_s fragments/B025/conf-0/spe_input.inp_351849.0 /gpfs/fs0/scratch/a/aspuru/rhickman/descriptor_computation/qchem351849/
                  Welcome to Q-Chem
     A Quantum Leap Into The Future Of Chemistry


 Q-Chem 5.2, Q-Chem, Inc., Pleasanton, CA (2019)

 License issued to: SRG Alan Aspuru-Guzik, University of Toronto

 Yihan Shao,  Zhengting Gan,  E. Epifanovsky,  A. T. B. Gilbert,  M. Wormit,  
 J. Kussmann,  A. W. Lange,  A. Behn,  Jia Deng,  Xintian Feng,  D. Ghosh,  
 M. Goldey,  P. R. Horn,  L. D. Jacobson,  I. Kaliman,  T. Kus,  A. Landau,  
 Jie Liu,  E. I. Proynov,  R. M. Richard,  R. P. Steele,  E. J. Sundstrom,  
 H. L. Woodcock III,  P. M. Zimmerman,  D. Zuev,  B. Albrecht,  E. Alguire,  
 S. A. Baeppler,  D. Barton,  Z. Benda,  Y. A. Bernard,  E. J. Berquist,  
 K. B. Bravaya,  H. Burton,  D. Casanova,  Chun-Min Chang,  Yunqing Chen,  
 A. Chien,  K. D. Closser,  M. P. Coons,  S. Coriani,  S. Dasgupta,  
 A. L. Dempwolff,  M. Diedenhofen,  Hainam Do,  R. G. Edgar,  Po-Tung Fang,  
 S. Faraji,  S. Fatehi,  Qingguo Feng,  K. D. Fenk,  J. Fosso-Tande,  
 J. Gayvert,  Qinghui Ge,  A. Ghysels,  G. Gidofalvi,  J. Gomes,  
 J. Gonthier,  A. Gunina,  D. Hait,  M. W. D. Hanson-Heine,  
 P. H. P. Harbach,  A. W. Hauser,  M. F. Herbst,  J. E. Herr,  
 E. G. Hohenstein,  Z. C. Holden,  Kerwin Hui,  B. C. Huynh,  T.-C. Jagau,  
 Hyunjun Ji,  B. Kaduk,  K. Khistyaev,  Jaehoon Kim,  P. Klunzinger,  K. Koh,  
 D. Kosenkov,  L. Koulias,  T. Kowalczyk,  C. M. Krauter,  A. Kunitsa,  
 Ka Un Lao,  A. Laurent,  K. V. Lawler,  Joonho Lee,  D. Lefrancois,  
 S. Lehtola,  D. S. Levine,  Yi-Pei Li,  You-Sheng Lin,  Fenglai Liu,  
 E. Livshits,  A. Luenser,  P. Manohar,  E. Mansoor,  S. F. Manzer,  
 Shan-Ping Mao,  Yuezhi Mao,  N. Mardirossian,  A. V. Marenich,  
 T. Markovich,  L. A. Martinez-Martinez,  S. A. Maurer,  N. J. Mayhall,  
 S. C. McKenzie,  J.-M. Mewes,  P. Morgante,  A. F. Morrison,  
 J. W. Mullinax,  K. Nanda,  T. S. Nguyen-Beck,  R. Olivares-Amaya,  
 J. A. Parkhill,  Zheng Pei,  T. M. Perrine,  F. Plasser,  P. Pokhilko,  
 S. Prager,  A. Prociuk,  E. Ramos,  D. R. Rehn,  F. Rob,  M. Scheurer,  
 M. Schneider,  N. Sergueev,  S. M. Sharada,  S. Sharma,  D. W. Small,  
 T. Stauch,  T. Stein,  Yu-Chuan Su,  A. J. W. Thom,  A. Tkatchenko,  
 T. Tsuchimochi,  N. M. Tubman,  L. Vogt,  M. L. Vidal,  O. Vydrov,  
 M. A. Watson,  J. Wenzel,  M. de Wergifosse,  T. A. Wesolowski,  A. White,  
 J. Witte,  A. Yamada,  Jun Yang,  K. Yao,  S. Yeganeh,  S. R. Yost,  
 Zhi-Qiang You,  A. Zech,  Igor Ying Zhang,  Xing Zhang,  Yan Zhao,  
 Ying Zhu,  B. R. Brooks,  G. K. L. Chan,  C. J. Cramer,  M. S. Gordon,  
 W. J. Hehre,  A. Klamt,  M. W. Schmidt,  C. D. Sherrill,  D. G. Truhlar,  
 A. Aspuru-Guzik,  R. Baer,  A. T. Bell,  N. A. Besley,  Jeng-Da Chai,  
 A. E. DePrince, III,  R. A. DiStasio Jr.,  A. Dreuw,  B. D. Dunietz,  
 T. R. Furlani,  Chao-Ping Hsu,  Yousung Jung,  Jing Kong,  D. S. Lambrecht,  
 WanZhen Liang,  C. Ochsenfeld,  V. A. Rassolov,  L. V. Slipchenko,  
 J. E. Subotnik,  T. Van Voorhis,  J. M. Herbert,  A. I. Krylov,  
 P. M. W. Gill,  M. Head-Gordon

 Contributors to earlier versions of Q-Chem not listed above: 
 R. D. Adamson,  B. Austin,  J. Baker,  G. J. O. Beran,  K. Brandhorst,  
 S. T. Brown,  E. F. C. Byrd,  A. K. Chakraborty,  C.-L. Cheng,  
 Siu Hung Chien,  D. M. Chipman,  D. L. Crittenden,  H. Dachsel,  
 R. J. Doerksen,  A. D. Dutoi,  L. Fusti-Molnar,  W. A. Goddard III,  
 A. Golubeva-Zadorozhnaya,  S. R. Gwaltney,  G. Hawkins,  A. Heyden,  
 S. Hirata,  G. Kedziora,  F. J. Keil,  C. Kelley,  Jihan Kim,  R. A. King,  
 R. Z. Khaliullin,  P. P. Korambath,  W. Kurlancheek,  A. M. Lee,  M. S. Lee,  
 S. V. Levchenko,  Ching Yeh Lin,  D. Liotard,  R. C. Lochan,  I. Lotan,  
 P. E. Maslen,  N. Nair,  D. P. O'Neill,  D. Neuhauser,  E. Neuscamman,  
 C. M. Oana,  R. Olson,  B. Peters,  R. Peverati,  P. A. Pieniazek,  
 Y. M. Rhee,  J. Ritchie,  M. A. Rohrdanz,  E. Rosta,  N. J. Russ,  
 H. F. Schaefer III,  N. E. Schultz,  N. Shenvi,  A. C. Simmonett,  A. Sodt,  
 D. Stuck,  K. S. Thanthiriwatte,  V. Vanovschi,  Tao Wang,  A. Warshel,  
 C. F. Williams,  Q. Wu,  X. Xu,  W. Zhang

 Please cite Q-Chem as follows:
 Y. Shao et al., Mol. Phys. 113, 184-215 (2015)
 DOI: 10.1080/00268976.2014.952696

 Q-Chem 5.2.1 for Intel X86 EM64T Linux

 Parts of Q-Chem use Armadillo 8.300.2 (Tropical Shenanigans).
 http://arma.sourceforge.net/

 Q-Chem begins on Tue Feb  8 16:11:58 2022  

Host: 
0

     Scratch files written to /gpfs/fs0/scratch/a/aspuru/rhickman/descriptor_computation/qchem351849//
 Jul1719 |scratch|qcdevops|jenkins|workspace|build_RNUM -1
Processing $rem in /scinet/niagara/software/commercial/qc52/config/preferences:
	 MEM_TOTAL  4000 
NAlpha2: 88
NElect   88
Mult     1

Checking the input file for inconsistencies... 	...done.

--------------------------------------------------------------
User input:
--------------------------------------------------------------
$molecule
0 1
C         4.30889952540000    0.71115161780000   -0.00215059220000
C         3.58132034280000   -0.40242615200000   -0.00208771450000
C         2.14535106790000   -0.44898487510000    0.00016423490000
C         1.35431599180000   -1.57275496120000    0.00143762670000
C        -0.01826100990000   -1.29815828140000    0.00254493080000
C        -0.29588658380000    0.04736535240000    0.00212133180000
C        -1.55461371740000    0.73609617920000    0.00183042870000
C        -2.75748073590000    0.17212538180000   -0.00040781710000
F        -3.02753191280000   -1.12871414700000   -0.00251421280000
F        -3.89512586310000    0.86104233370000   -0.00098946580000
S         1.16764895200000    0.98581439480000    0.00079608700000
H         5.38383839430000    0.68444852180000   -0.00434222680000
H         3.84564516810000    1.68424853870000   -0.00015263750000
H         4.06233685620000   -1.37237063820000   -0.00399886160000
H         1.76049450980000   -2.56879882410000    0.00147048110000
H        -0.77728207240000   -2.05855422050000    0.00358047600000
H        -1.52926697950000    1.81513912100000    0.00302071560000
$end

$rem
BASIS = 6-31G*
GUI = 2
METHOD = B3LYP
PRINT_ORBITALS false
MOLDEN_FORMAT false
--------------------------------------------------------------
 ----------------------------------------------------------------
             Standard Nuclear Orientation (Angstroms)
    I     Atom           X                Y                Z
 ----------------------------------------------------------------
    1      C       4.1978713598    -0.7243302699     0.0019460172
    2      C       3.4714207545     0.3899840656     0.0019522291
    3      C       2.0354992818     0.4379976652    -0.0002301350
    4      C       1.2456030844     1.5625686388    -0.0014311098
    5      C      -0.1272514677     1.2893627401    -0.0024818050
    6      C      -0.4062400775    -0.0558789436    -0.0020867955
    7      C      -1.6656643281    -0.7433341653    -0.0017575402
    8      C      -2.8679592425    -0.1781450608     0.0005552896
    9      F      -3.1366922529     1.1229673325     0.0027148764
   10      F      -4.0063017237    -0.8659090890     0.0011695391
   11      S       1.0563439916    -0.9958103039    -0.0008601273
   12      H       5.2728368337    -0.6987163137     0.0040874722
   13      H       3.7336312663    -1.6969572897    -0.0000601588
   14      H       3.9534197971     1.3594406595     0.0038706567
   15      H       1.6527905201     2.5582004775    -0.0014523222
   16      H      -0.8855018042     2.0505273114    -0.0034577310
   17      H      -1.6414108772    -1.8224021955    -0.0029825221
 ----------------------------------------------------------------
 Molecular Point Group                 C1    NOp =  1
 Largest Abelian Subgroup              C1    NOp =  1
 Nuclear Repulsion Energy =         647.92842693 hartrees
 There are       44 alpha and       44 beta electrons
 Requested basis set is 6-31G(d)
 There are 57 shells and 181 basis functions

 Total QAlloc Memory Limit   4000 MB
 Mega-Array Size       188 MB
 MEM_STATIC part       192 MB
 A cutoff of  1.0D-08 yielded   1126 shell pairs
 There are     12148 function pairs
 Smallest overlap matrix eigenvalue = 8.01E-04

 Scale SEOQF with 1.000000e-02/1.000000e-01/1.000000e+00

 Standard Electronic Orientation quadrupole field applied
 Nucleus-field energy     =     0.0000000083 hartrees
 Guess from superposition of atomic densities
 Warning:  Energy on first SCF cycle will be non-variational
 SAD guess density has 88.000000 electrons

 -----------------------------------------------------------------------
  General SCF calculation program by
  Eric Jon Sundstrom, Paul Horn, Yuezhi Mao, Dmitri Zuev, Alec White,
  David Stuck, Shaama M.S., Shane Yost, Joonho Lee, David Small,
  Daniel Levine, Susi Lehtola, Hugh Burton, Evgeny Epifanovsky,
  Bang C. Huynh
 -----------------------------------------------------------------------
 Exchange:     0.2000 Hartree-Fock + 0.0800 Slater + 0.7200 B88
 Correlation:  0.1900 VWN1RPA + 0.8100 LYP
 Using SG-1 standard quadrature grid
 A restricted SCF calculation will be
 performed using DIIS
 SCF converges when DIIS error is below 1.0e-05
 ---------------------------------------
  Cycle       Energy         DIIS error
 ---------------------------------------
    1    -908.7462010496      5.85e-02  
    2    -906.0612990818      6.99e-03  
    3    -905.7754248565      1.05e-02  
    4    -906.2585280419      1.74e-03  
    5    -906.2711552368      6.52e-04  
    6    -906.2723866705      3.94e-04  
    7    -906.2730153735      8.31e-05  
    8    -906.2730457427      2.93e-05  
    9    -906.2730492898      1.18e-05  
   10    -906.2730498874      2.38e-06  Convergence criterion met
 ---------------------------------------
 SCF time:   CPU 20.84s  wall 21.00s 
 SCF   energy in the final basis set =     -906.2730498874
 Total energy in the final basis set =     -906.2730498874
 
 --------------------------------------------------------------
 
                    Orbital Energies (a.u.)
 --------------------------------------------------------------
 
 Alpha MOs
 -- Occupied --
-88.9081 -24.7477 -24.7401 -10.3617 -10.2304 -10.2196 -10.2138 -10.1996
-10.1933 -10.1908 -10.1827  -7.9701  -5.9340  -5.9305  -5.9269  -1.2891
 -1.2295  -0.8947  -0.8198  -0.7836  -0.7422  -0.7109  -0.6491  -0.6077
 -0.5807  -0.5773  -0.5371  -0.5230  -0.5195  -0.4872  -0.4552  -0.4473
 -0.4453  -0.4333  -0.4176  -0.3979  -0.3928  -0.3810  -0.3709  -0.3417
 -0.3248  -0.2720  -0.2570  -0.1992
 -- Virtual --
 -0.0518   0.0127   0.0184   0.0778   0.0844   0.1079   0.1121   0.1255
  0.1329   0.1477   0.1705   0.1860   0.1901   0.2097   0.2479   0.2755
  0.2898   0.3129   0.3377   0.3587   0.3959   0.4038   0.4252   0.4623
  0.4760   0.4908   0.4998   0.5240   0.5363   0.5568   0.5573   0.5699
  0.5830   0.6061   0.6090   0.6124   0.6167   0.6505   0.6706   0.6833
  0.6995   0.7398   0.7924   0.8112   0.8252   0.8377   0.8467   0.8506
  0.8590   0.8685   0.8771   0.9102   0.9287   0.9301   0.9768   1.0122
  1.0174   1.0383   1.0460   1.0922   1.1209   1.1283   1.1570   1.1851
  1.2160   1.2175   1.2507   1.3080   1.3161   1.3346   1.3427   1.3546
  1.3943   1.3980   1.3997   1.4273   1.4526   1.4652   1.4812   1.6173
  1.6206   1.6308   1.6499   1.7095   1.7502   1.7810   1.7814   1.8172
  1.8309   1.8538   1.8846   1.8868   1.9659   1.9883   1.9993   2.0043
  2.0202   2.0423   2.0500   2.0699   2.1078   2.1290   2.1582   2.1947
  2.2321   2.3071   2.3087   2.3270   2.3630   2.3884   2.4661   2.4926
  2.4951   2.5268   2.5993   2.6501   2.6553   2.7260   2.7857   2.8926
  2.9064   3.0186   3.0427   3.0915   3.1413   3.2999   3.9637   4.0688
  4.1053   4.1236   4.1392   4.2138   4.3084   4.5157   4.5389   4.7479
  5.2418
 --------------------------------------------------------------
 
          Ground-State Mulliken Net Atomic Charges

     Atom                 Charge (a.u.)
  ----------------------------------------
      1 C                    -0.375996
      2 C                    -0.055708
      3 C                    -0.137451
      4 C                    -0.138928
      5 C                    -0.134256
      6 C                    -0.115688
      7 C                    -0.264603
      8 C                     0.555878
      9 F                    -0.235788
     10 F                    -0.243652
     11 S                     0.246193
     12 H                     0.147347
     13 H                     0.154194
     14 H                     0.139007
     15 H                     0.140747
     16 H                     0.147177
     17 H                     0.171528
  ----------------------------------------
  Sum of atomic charges =     0.000000

 -----------------------------------------------------------------
                    Cartesian Multipole Moments
 -----------------------------------------------------------------
    Charge (ESU x 10^10)
                 0.0000
    Dipole Moment (Debye)
         X       0.6729      Y       0.3317      Z      -0.0006
       Tot       0.7502
    Quadrupole Moments (Debye-Ang)
        XX     -66.7241     XY       1.9911     YY     -63.3019
        XZ       0.0152     YZ       0.0022     ZZ     -71.6978
    Octopole Moments (Debye-Ang^2)
       XXX     -12.5387    XXY       3.5272    XYY     -12.2825
       YYY       5.2823    XXZ       0.0523    XYZ       0.0137
       YYZ      -0.0054    XZZ     -26.8872    YZZ       0.1397
       ZZZ       0.0419
    Hexadecapole Moments (Debye-Ang^3)
      XXXX   -2528.8412   XXXY      -7.8564   XXYY    -486.6043
      XYYY      10.9675   YYYY    -417.6057   XXXZ       0.2709
      XXYZ       0.0353   XYYZ      -0.0076   YYYZ       0.0210
      XXZZ    -467.8809   XYZZ      -0.6868   YYZZ     -92.6843
      XZZZ      -0.1524   YZZZ       0.0293   ZZZZ     -72.9910
 -----------------------------------------------------------------
Archival summary:
1\1\nia2015.scinet.local\SP\ProcedureUnspecified\6-31G*\1286\rhickman\TueFeb816:12:192022TueFeb816:12:192022\0\\#,ProcedureUnspecified,6-31G*,\\0,1\S\C,1,1.73625\C,2,1.37426,1,110.586\H,3,1.07568,2,122.673,1,-179.99,0\C,3,1.39978,2,113.829,1,0.016114,0\H,5,1.07439,3,123.635,2,179.998,0\C,5,1.37387,3,112.972,2,0,0\C,7,1.43483,5,130.344,3,179.943,0\H,8,1.07934,7,117.34,5,179.91,0\C,8,1.32852,7,126.194,5,-0.124425,0\F,10,1.32858,8,126.848,7,0.0150631,0\F,10,1.32998,8,123.683,7,-179.978,0\C,2,1.43673,1,122.414,3,179.971,0\H,13,1.08267,2,114.521,1,-179.897,0\C,13,1.3302,2,125.016,1,0.0919397,0\H,15,1.07527,13,121.736,2,-179.972,0\H,15,1.07774,13,121.383,2,0.0183132,0\\\@

 Total job time:  21.06s(wall), 20.97s(cpu) 
 Tue Feb  8 16:12:19 2022

        *************************************************************
        *                                                           *
        *  Thank you very much for using Q-Chem.  Have a nice day.  *
        *                                                           *
        *************************************************************


