
Running Job 1 of 1 fragments/C022/conf-3/spe_input.inp
qchem fragments/C022/conf-3/spe_input.inp_338558.0 /gpfs/fs0/scratch/a/aspuru/rhickman/descriptor_computation/qchem338558/ 0
/scinet/niagara/software/commercial/qc52/exe/qcprog.exe_s fragments/C022/conf-3/spe_input.inp_338558.0 /gpfs/fs0/scratch/a/aspuru/rhickman/descriptor_computation/qchem338558/
                  Welcome to Q-Chem
     A Quantum Leap Into The Future Of Chemistry


 Q-Chem 5.2, Q-Chem, Inc., Pleasanton, CA (2019)

 License issued to: SRG Alan Aspuru-Guzik, University of Toronto

 Yihan Shao,  Zhengting Gan,  E. Epifanovsky,  A. T. B. Gilbert,  M. Wormit,  
 J. Kussmann,  A. W. Lange,  A. Behn,  Jia Deng,  Xintian Feng,  D. Ghosh,  
 M. Goldey,  P. R. Horn,  L. D. Jacobson,  I. Kaliman,  T. Kus,  A. Landau,  
 Jie Liu,  E. I. Proynov,  R. M. Richard,  R. P. Steele,  E. J. Sundstrom,  
 H. L. Woodcock III,  P. M. Zimmerman,  D. Zuev,  B. Albrecht,  E. Alguire,  
 S. A. Baeppler,  D. Barton,  Z. Benda,  Y. A. Bernard,  E. J. Berquist,  
 K. B. Bravaya,  H. Burton,  D. Casanova,  Chun-Min Chang,  Yunqing Chen,  
 A. Chien,  K. D. Closser,  M. P. Coons,  S. Coriani,  S. Dasgupta,  
 A. L. Dempwolff,  M. Diedenhofen,  Hainam Do,  R. G. Edgar,  Po-Tung Fang,  
 S. Faraji,  S. Fatehi,  Qingguo Feng,  K. D. Fenk,  J. Fosso-Tande,  
 J. Gayvert,  Qinghui Ge,  A. Ghysels,  G. Gidofalvi,  J. Gomes,  
 J. Gonthier,  A. Gunina,  D. Hait,  M. W. D. Hanson-Heine,  
 P. H. P. Harbach,  A. W. Hauser,  M. F. Herbst,  J. E. Herr,  
 E. G. Hohenstein,  Z. C. Holden,  Kerwin Hui,  B. C. Huynh,  T.-C. Jagau,  
 Hyunjun Ji,  B. Kaduk,  K. Khistyaev,  Jaehoon Kim,  P. Klunzinger,  K. Koh,  
 D. Kosenkov,  L. Koulias,  T. Kowalczyk,  C. M. Krauter,  A. Kunitsa,  
 Ka Un Lao,  A. Laurent,  K. V. Lawler,  Joonho Lee,  D. Lefrancois,  
 S. Lehtola,  D. S. Levine,  Yi-Pei Li,  You-Sheng Lin,  Fenglai Liu,  
 E. Livshits,  A. Luenser,  P. Manohar,  E. Mansoor,  S. F. Manzer,  
 Shan-Ping Mao,  Yuezhi Mao,  N. Mardirossian,  A. V. Marenich,  
 T. Markovich,  L. A. Martinez-Martinez,  S. A. Maurer,  N. J. Mayhall,  
 S. C. McKenzie,  J.-M. Mewes,  P. Morgante,  A. F. Morrison,  
 J. W. Mullinax,  K. Nanda,  T. S. Nguyen-Beck,  R. Olivares-Amaya,  
 J. A. Parkhill,  Zheng Pei,  T. M. Perrine,  F. Plasser,  P. Pokhilko,  
 S. Prager,  A. Prociuk,  E. Ramos,  D. R. Rehn,  F. Rob,  M. Scheurer,  
 M. Schneider,  N. Sergueev,  S. M. Sharada,  S. Sharma,  D. W. Small,  
 T. Stauch,  T. Stein,  Yu-Chuan Su,  A. J. W. Thom,  A. Tkatchenko,  
 T. Tsuchimochi,  N. M. Tubman,  L. Vogt,  M. L. Vidal,  O. Vydrov,  
 M. A. Watson,  J. Wenzel,  M. de Wergifosse,  T. A. Wesolowski,  A. White,  
 J. Witte,  A. Yamada,  Jun Yang,  K. Yao,  S. Yeganeh,  S. R. Yost,  
 Zhi-Qiang You,  A. Zech,  Igor Ying Zhang,  Xing Zhang,  Yan Zhao,  
 Ying Zhu,  B. R. Brooks,  G. K. L. Chan,  C. J. Cramer,  M. S. Gordon,  
 W. J. Hehre,  A. Klamt,  M. W. Schmidt,  C. D. Sherrill,  D. G. Truhlar,  
 A. Aspuru-Guzik,  R. Baer,  A. T. Bell,  N. A. Besley,  Jeng-Da Chai,  
 A. E. DePrince, III,  R. A. DiStasio Jr.,  A. Dreuw,  B. D. Dunietz,  
 T. R. Furlani,  Chao-Ping Hsu,  Yousung Jung,  Jing Kong,  D. S. Lambrecht,  
 WanZhen Liang,  C. Ochsenfeld,  V. A. Rassolov,  L. V. Slipchenko,  
 J. E. Subotnik,  T. Van Voorhis,  J. M. Herbert,  A. I. Krylov,  
 P. M. W. Gill,  M. Head-Gordon

 Contributors to earlier versions of Q-Chem not listed above: 
 R. D. Adamson,  B. Austin,  J. Baker,  G. J. O. Beran,  K. Brandhorst,  
 S. T. Brown,  E. F. C. Byrd,  A. K. Chakraborty,  C.-L. Cheng,  
 Siu Hung Chien,  D. M. Chipman,  D. L. Crittenden,  H. Dachsel,  
 R. J. Doerksen,  A. D. Dutoi,  L. Fusti-Molnar,  W. A. Goddard III,  
 A. Golubeva-Zadorozhnaya,  S. R. Gwaltney,  G. Hawkins,  A. Heyden,  
 S. Hirata,  G. Kedziora,  F. J. Keil,  C. Kelley,  Jihan Kim,  R. A. King,  
 R. Z. Khaliullin,  P. P. Korambath,  W. Kurlancheek,  A. M. Lee,  M. S. Lee,  
 S. V. Levchenko,  Ching Yeh Lin,  D. Liotard,  R. C. Lochan,  I. Lotan,  
 P. E. Maslen,  N. Nair,  D. P. O'Neill,  D. Neuhauser,  E. Neuscamman,  
 C. M. Oana,  R. Olson,  B. Peters,  R. Peverati,  P. A. Pieniazek,  
 Y. M. Rhee,  J. Ritchie,  M. A. Rohrdanz,  E. Rosta,  N. J. Russ,  
 H. F. Schaefer III,  N. E. Schultz,  N. Shenvi,  A. C. Simmonett,  A. Sodt,  
 D. Stuck,  K. S. Thanthiriwatte,  V. Vanovschi,  Tao Wang,  A. Warshel,  
 C. F. Williams,  Q. Wu,  X. Xu,  W. Zhang

 Please cite Q-Chem as follows:
 Y. Shao et al., Mol. Phys. 113, 184-215 (2015)
 DOI: 10.1080/00268976.2014.952696

 Q-Chem 5.2.1 for Intel X86 EM64T Linux

 Parts of Q-Chem use Armadillo 8.300.2 (Tropical Shenanigans).
 http://arma.sourceforge.net/

 Q-Chem begins on Tue Feb  8 15:29:53 2022  

Host: 
0

     Scratch files written to /gpfs/fs0/scratch/a/aspuru/rhickman/descriptor_computation/qchem338558//
 Jul1719 |scratch|qcdevops|jenkins|workspace|build_RNUM -1
Processing $rem in /scinet/niagara/software/commercial/qc52/config/preferences:
	 MEM_TOTAL  4000 
NAlpha2: 92
NElect   92
Mult     1

Checking the input file for inconsistencies... 	...done.

--------------------------------------------------------------
User input:
--------------------------------------------------------------
$molecule
0 1
C         4.00203843630000    0.69559312640000   -0.30196234660000
C         3.34780995150000   -0.41070645620000    0.03116643940000
C         1.90104385350000   -0.57191571630000    0.09064951380000
C         1.35723068280000   -1.84515031610000    0.28845191890000
C        -0.00622970710000   -2.04704925540000    0.32500582810000
C        -0.90368468420000   -0.98882542070000    0.17905483790000
C        -2.33768293200000   -1.26291656700000    0.10550087810000
C        -3.16089254490000   -0.71802865630000   -0.77833664340000
C        -0.35328318750000    0.29036520280000    0.03774135860000
N        -1.18383973090000    1.47045339180000    0.03430582300000
O        -2.10641165670000    1.51432341290000    0.81763825750000
O        -0.86931994910000    2.36528320160000   -0.72176475750000
C         1.01487195590000    0.49615286760000   -0.02432245060000
H         5.07764102210000    0.72095723610000   -0.32516585540000
H         3.50360404100000    1.61076872300000   -0.57093883240000
H         3.90933108370000   -1.30413105090000    0.27396172870000
H         2.02163716910000   -2.68935210900000    0.40305650350000
H        -0.39799901010000   -3.04563218830000    0.44965162730000
H        -2.69675380670000   -2.01997289220000    0.78976973820000
H        -2.83106412880000    0.00440396630000   -1.50739744920000
H        -4.20268431040000   -0.98305442830000   -0.81353387690000
H         1.37427273930000    1.50716761710000   -0.13734812290000
$end

$rem
BASIS = 6-31G*
GUI = 2
METHOD = B3LYP
PRINT_ORBITALS false
MOLDEN_FORMAT false
--------------------------------------------------------------
 ----------------------------------------------------------------
             Standard Nuclear Orientation (Angstroms)
    I     Atom           X                Y                Z
 ----------------------------------------------------------------
    1      C       3.9155083418    -1.0004441917     0.2371884194
    2      C       3.3342441109     0.1715968223     0.0106046155
    3      C       1.9008692305     0.4278938330    -0.0384575757
    4      C       1.4387899821     1.7457722020    -0.1137189532
    5      C       0.0908469116     2.0350650420    -0.1356902099
    6      C      -0.8717105693     1.0258457186    -0.0966483741
    7      C      -2.2866756000     1.3806097862    -0.0022898316
    8      C      -3.1506725727     0.8053106213     0.8212912321
    9      C      -0.4028671456    -0.2928976409    -0.0781617861
   10      N      -1.3047863439    -1.4135683593    -0.1925427691
   11      O      -2.2205368094    -1.3237386860    -0.9799467027
   12      O      -1.0536608178    -2.3952212347     0.4742251117
   13      C       0.9492695152    -0.5888138096    -0.0311612823
   14      H       4.9872040555    -1.0950972102     0.2619223416
   15      H       3.3588194763    -1.9043991488     0.4140909672
   16      H       3.9522930645     1.0474711869    -0.1421128662
   17      H       2.1552152987     2.5539244338    -0.1432417069
   18      H      -0.2371882036     3.0635423081    -0.1642403809
   19      H      -2.5914905540     2.2212454476    -0.6111490715
   20      H      -2.8733437935    -0.0034361731     1.4779819566
   21      H      -4.1743827443     1.1302704618     0.8780906538
   22      H       1.2443455976    -1.6264937256    -0.0155073069
 ----------------------------------------------------------------
 Molecular Point Group                 C1    NOp =  1
 Largest Abelian Subgroup              C1    NOp =  1
 Nuclear Repulsion Energy =         743.28700588 hartrees
 There are       46 alpha and       46 beta electrons
 Requested basis set is 6-31G(d)
 There are 70 shells and 213 basis functions

 Total QAlloc Memory Limit   4000 MB
 Mega-Array Size       188 MB
 MEM_STATIC part       192 MB
 A cutoff of  1.0D-08 yielded   1717 shell pairs
 There are     17478 function pairs
 Smallest overlap matrix eigenvalue = 3.36E-04

 Scale SEOQF with 1.000000e-01/1.000000e-01/1.000000e+00

 Standard Electronic Orientation quadrupole field applied
 Nucleus-field energy     =     0.0000000094 hartrees
 Guess from superposition of atomic densities
 Warning:  Energy on first SCF cycle will be non-variational
 SAD guess density has 92.000000 electrons

 -----------------------------------------------------------------------
  General SCF calculation program by
  Eric Jon Sundstrom, Paul Horn, Yuezhi Mao, Dmitri Zuev, Alec White,
  David Stuck, Shaama M.S., Shane Yost, Joonho Lee, David Small,
  Daniel Levine, Susi Lehtola, Hugh Burton, Evgeny Epifanovsky,
  Bang C. Huynh
 -----------------------------------------------------------------------
 Exchange:     0.2000 Hartree-Fock + 0.0800 Slater + 0.7200 B88
 Correlation:  0.1900 VWN1RPA + 0.8100 LYP
 Using SG-1 standard quadrature grid
 A restricted SCF calculation will be
 performed using DIIS
 SCF converges when DIIS error is below 1.0e-05
 ---------------------------------------
  Cycle       Energy         DIIS error
 ---------------------------------------
    1    -594.6937400560      5.65e-02  
    2    -591.2442460282      7.69e-03  
    3    -590.8664433567      1.26e-02  
    4    -591.5127854856      1.90e-03  
    5    -591.5288727800      8.67e-04  
    6    -591.5309862858      5.97e-04  
    7    -591.5325045417      1.45e-04  
    8    -591.5326056249      3.73e-05  
    9    -591.5326135778      1.12e-05  
   10    -591.5326142035      3.36e-06  Convergence criterion met
 ---------------------------------------
 SCF time:   CPU 34.22s  wall 34.00s 
 SCF   energy in the final basis set =     -591.5326142035
 Total energy in the final basis set =     -591.5326142035
 
 --------------------------------------------------------------
 
                    Orbital Energies (a.u.)
 --------------------------------------------------------------
 
 Alpha MOs
 -- Occupied --
-19.1768 -19.1762 -14.5692 -10.2496 -10.2254 -10.2178 -10.2154 -10.2115
-10.2104 -10.2051 -10.2020 -10.1944 -10.1913  -1.2394  -1.0609  -0.9009
 -0.8333  -0.8083  -0.7828  -0.7382  -0.7057  -0.6529  -0.6153  -0.5838
 -0.5763  -0.5498  -0.5300  -0.5134  -0.5071  -0.4877  -0.4767  -0.4558
 -0.4462  -0.4380  -0.4091  -0.3966  -0.3810  -0.3727  -0.3604  -0.3345
 -0.3118  -0.3048  -0.2968  -0.2762  -0.2682  -0.2325
 -- Virtual --
 -0.0774  -0.0542  -0.0090   0.0099   0.0604   0.0892   0.1036   0.1134
  0.1267   0.1390   0.1557   0.1659   0.1762   0.1939   0.1996   0.2292
  0.2517   0.2820   0.2983   0.3021   0.3109   0.3376   0.3534   0.3628
  0.4005   0.4299   0.4488   0.4795   0.4981   0.5016   0.5184   0.5277
  0.5367   0.5571   0.5592   0.5664   0.5776   0.5880   0.5963   0.6042
  0.6084   0.6180   0.6415   0.6586   0.6717   0.6810   0.6844   0.7106
  0.7168   0.7582   0.7720   0.7974   0.8081   0.8233   0.8354   0.8401
  0.8475   0.8608   0.8668   0.8723   0.8851   0.9039   0.9263   0.9438
  0.9583   0.9607   0.9652   0.9940   1.0047   1.0215   1.0496   1.0702
  1.0758   1.0905   1.0991   1.1225   1.1373   1.1441   1.1833   1.2189
  1.2395   1.2609   1.2894   1.3098   1.3261   1.3896   1.3968   1.4362
  1.4438   1.4607   1.4872   1.4945   1.5062   1.5220   1.5609   1.5906
  1.6337   1.6627   1.6838   1.7113   1.7490   1.7627   1.7980   1.8063
  1.8197   1.8534   1.8672   1.8881   1.9251   1.9426   1.9613   1.9810
  1.9823   1.9966   2.0133   2.0281   2.0738   2.0845   2.0905   2.1236
  2.1324   2.1626   2.1944   2.2249   2.2364   2.2483   2.2659   2.2921
  2.3220   2.3597   2.3950   2.4278   2.4401   2.4873   2.5165   2.5788
  2.6145   2.6267   2.6552   2.6708   2.6856   2.7114   2.7233   2.7682
  2.8463   2.8728   2.8957   2.9192   2.9369   2.9611   3.0914   3.1078
  3.2597   3.4508   3.7536   3.8493   3.9449   4.0747   4.0985   4.1393
  4.1412   4.1949   4.2335   4.3169   4.3588   4.4970   4.7634
 --------------------------------------------------------------
 
          Ground-State Mulliken Net Atomic Charges

     Atom                 Charge (a.u.)
  ----------------------------------------
      1 C                    -0.345150
      2 C                    -0.117892
      3 C                     0.169872
      4 C                    -0.177069
      5 C                    -0.195239
      6 C                     0.158128
      7 C                    -0.119546
      8 C                    -0.318647
      9 C                     0.207668
     10 N                     0.351875
     11 O                    -0.377928
     12 O                    -0.388003
     13 C                    -0.199788
     14 H                     0.152830
     15 H                     0.154145
     16 H                     0.134318
     17 H                     0.141195
     18 H                     0.144216
     19 H                     0.144919
     20 H                     0.156212
     21 H                     0.154203
     22 H                     0.169682
  ----------------------------------------
  Sum of atomic charges =     0.000000

 -----------------------------------------------------------------
                    Cartesian Multipole Moments
 -----------------------------------------------------------------
    Charge (ESU x 10^10)
                 0.0000
    Dipole Moment (Debye)
         X       2.3578      Y       3.2828      Z       0.3562
       Tot       4.0574
    Quadrupole Moments (Debye-Ang)
        XX     -68.0068     XY      -6.0116     YY     -73.3461
        XZ      -2.9564     YZ      -1.2360     ZZ     -77.7803
    Octopole Moments (Debye-Ang^2)
       XXX       6.0853    XXY       9.4251    XYY      11.3897
       YYY      11.1411    XXZ      10.9672    XYZ       2.5354
       YYZ      -7.0445    XZZ      -9.4616    YZZ      -6.8884
       ZZZ      -1.5180
    Hexadecapole Moments (Debye-Ang^3)
      XXXX   -2005.4852   XXXY     -27.8778   XXYY    -493.3240
      XYYY      -4.8759   YYYY    -874.4830   XXXZ     -25.1707
      XXYZ     -20.2881   XYYZ      10.3656   YYYZ      -0.7152
      XXZZ    -419.2575   XYZZ       7.9195   YYZZ    -181.5705
      XZZZ       2.5811   YZZZ      -1.2288   ZZZZ    -154.0648
 -----------------------------------------------------------------
Archival summary:
1\1\nia2015.scinet.local\SP\ProcedureUnspecified\6-31G*\21109\rhickman\TueFeb815:30:272022TueFeb815:30:272022\0\\#,ProcedureUnspecified,6-31G*,\\0,1\N\O,1,1.21106\O,1,1.21297,2,125.028\C,1,1.44307,2,117.809,3,177.006,0\C,4,1.38494,1,116.549,2,-135.841,0\H,5,1.07893,4,118.229,1,-4.01065,0\C,5,1.39258,4,120.729,1,174.383,0\C,7,1.39857,5,117.547,4,-0.881573,0\H,8,1.08039,7,119.16,5,-178.656,0\C,8,1.37881,7,121.437,5,2.08756,0\H,10,1.0799,8,119.815,7,178.165,0\C,10,1.39519,8,121.483,7,-0.617208,0\C,7,1.45693,5,122.934,4,179.947,0\H,13,1.0828,7,114.488,5,171.797,0\C,13,1.32774,7,126.281,5,-9.17394,0\H,15,1.07615,13,121.167,7,-179.584,0\H,15,1.07626,13,122.89,7,-0.110305,0\C,12,1.46181,10,119.608,8,174.6,0\H,18,1.0818,12,115.15,10,41.0592,0\C,18,1.32505,12,124.465,10,-134.421,0\H,20,1.07555,18,121.485,12,177.607,0\H,20,1.07807,18,122.451,12,-1.75907,0\\\@

 Total job time:  34.52s(wall), 34.40s(cpu) 
 Tue Feb  8 15:30:27 2022

        *************************************************************
        *                                                           *
        *  Thank you very much for using Q-Chem.  Have a nice day.  *
        *                                                           *
        *************************************************************


