
Running Job 1 of 1 fragments/A029/conf-2/spe_input.inp
qchem fragments/A029/conf-2/spe_input.inp_80323.0 /gpfs/fs0/scratch/a/aspuru/rhickman/descriptor_computation/qchem80323/ 0
/scinet/niagara/software/commercial/qc52/exe/qcprog.exe_s fragments/A029/conf-2/spe_input.inp_80323.0 /gpfs/fs0/scratch/a/aspuru/rhickman/descriptor_computation/qchem80323/
                  Welcome to Q-Chem
     A Quantum Leap Into The Future Of Chemistry


 Q-Chem 5.2, Q-Chem, Inc., Pleasanton, CA (2019)

 License issued to: SRG Alan Aspuru-Guzik, University of Toronto

 Yihan Shao,  Zhengting Gan,  E. Epifanovsky,  A. T. B. Gilbert,  M. Wormit,  
 J. Kussmann,  A. W. Lange,  A. Behn,  Jia Deng,  Xintian Feng,  D. Ghosh,  
 M. Goldey,  P. R. Horn,  L. D. Jacobson,  I. Kaliman,  T. Kus,  A. Landau,  
 Jie Liu,  E. I. Proynov,  R. M. Richard,  R. P. Steele,  E. J. Sundstrom,  
 H. L. Woodcock III,  P. M. Zimmerman,  D. Zuev,  B. Albrecht,  E. Alguire,  
 S. A. Baeppler,  D. Barton,  Z. Benda,  Y. A. Bernard,  E. J. Berquist,  
 K. B. Bravaya,  H. Burton,  D. Casanova,  Chun-Min Chang,  Yunqing Chen,  
 A. Chien,  K. D. Closser,  M. P. Coons,  S. Coriani,  S. Dasgupta,  
 A. L. Dempwolff,  M. Diedenhofen,  Hainam Do,  R. G. Edgar,  Po-Tung Fang,  
 S. Faraji,  S. Fatehi,  Qingguo Feng,  K. D. Fenk,  J. Fosso-Tande,  
 J. Gayvert,  Qinghui Ge,  A. Ghysels,  G. Gidofalvi,  J. Gomes,  
 J. Gonthier,  A. Gunina,  D. Hait,  M. W. D. Hanson-Heine,  
 P. H. P. Harbach,  A. W. Hauser,  M. F. Herbst,  J. E. Herr,  
 E. G. Hohenstein,  Z. C. Holden,  Kerwin Hui,  B. C. Huynh,  T.-C. Jagau,  
 Hyunjun Ji,  B. Kaduk,  K. Khistyaev,  Jaehoon Kim,  P. Klunzinger,  K. Koh,  
 D. Kosenkov,  L. Koulias,  T. Kowalczyk,  C. M. Krauter,  A. Kunitsa,  
 Ka Un Lao,  A. Laurent,  K. V. Lawler,  Joonho Lee,  D. Lefrancois,  
 S. Lehtola,  D. S. Levine,  Yi-Pei Li,  You-Sheng Lin,  Fenglai Liu,  
 E. Livshits,  A. Luenser,  P. Manohar,  E. Mansoor,  S. F. Manzer,  
 Shan-Ping Mao,  Yuezhi Mao,  N. Mardirossian,  A. V. Marenich,  
 T. Markovich,  L. A. Martinez-Martinez,  S. A. Maurer,  N. J. Mayhall,  
 S. C. McKenzie,  J.-M. Mewes,  P. Morgante,  A. F. Morrison,  
 J. W. Mullinax,  K. Nanda,  T. S. Nguyen-Beck,  R. Olivares-Amaya,  
 J. A. Parkhill,  Zheng Pei,  T. M. Perrine,  F. Plasser,  P. Pokhilko,  
 S. Prager,  A. Prociuk,  E. Ramos,  D. R. Rehn,  F. Rob,  M. Scheurer,  
 M. Schneider,  N. Sergueev,  S. M. Sharada,  S. Sharma,  D. W. Small,  
 T. Stauch,  T. Stein,  Yu-Chuan Su,  A. J. W. Thom,  A. Tkatchenko,  
 T. Tsuchimochi,  N. M. Tubman,  L. Vogt,  M. L. Vidal,  O. Vydrov,  
 M. A. Watson,  J. Wenzel,  M. de Wergifosse,  T. A. Wesolowski,  A. White,  
 J. Witte,  A. Yamada,  Jun Yang,  K. Yao,  S. Yeganeh,  S. R. Yost,  
 Zhi-Qiang You,  A. Zech,  Igor Ying Zhang,  Xing Zhang,  Yan Zhao,  
 Ying Zhu,  B. R. Brooks,  G. K. L. Chan,  C. J. Cramer,  M. S. Gordon,  
 W. J. Hehre,  A. Klamt,  M. W. Schmidt,  C. D. Sherrill,  D. G. Truhlar,  
 A. Aspuru-Guzik,  R. Baer,  A. T. Bell,  N. A. Besley,  Jeng-Da Chai,  
 A. E. DePrince, III,  R. A. DiStasio Jr.,  A. Dreuw,  B. D. Dunietz,  
 T. R. Furlani,  Chao-Ping Hsu,  Yousung Jung,  Jing Kong,  D. S. Lambrecht,  
 WanZhen Liang,  C. Ochsenfeld,  V. A. Rassolov,  L. V. Slipchenko,  
 J. E. Subotnik,  T. Van Voorhis,  J. M. Herbert,  A. I. Krylov,  
 P. M. W. Gill,  M. Head-Gordon

 Contributors to earlier versions of Q-Chem not listed above: 
 R. D. Adamson,  B. Austin,  J. Baker,  G. J. O. Beran,  K. Brandhorst,  
 S. T. Brown,  E. F. C. Byrd,  A. K. Chakraborty,  C.-L. Cheng,  
 Siu Hung Chien,  D. M. Chipman,  D. L. Crittenden,  H. Dachsel,  
 R. J. Doerksen,  A. D. Dutoi,  L. Fusti-Molnar,  W. A. Goddard III,  
 A. Golubeva-Zadorozhnaya,  S. R. Gwaltney,  G. Hawkins,  A. Heyden,  
 S. Hirata,  G. Kedziora,  F. J. Keil,  C. Kelley,  Jihan Kim,  R. A. King,  
 R. Z. Khaliullin,  P. P. Korambath,  W. Kurlancheek,  A. M. Lee,  M. S. Lee,  
 S. V. Levchenko,  Ching Yeh Lin,  D. Liotard,  R. C. Lochan,  I. Lotan,  
 P. E. Maslen,  N. Nair,  D. P. O'Neill,  D. Neuhauser,  E. Neuscamman,  
 C. M. Oana,  R. Olson,  B. Peters,  R. Peverati,  P. A. Pieniazek,  
 Y. M. Rhee,  J. Ritchie,  M. A. Rohrdanz,  E. Rosta,  N. J. Russ,  
 H. F. Schaefer III,  N. E. Schultz,  N. Shenvi,  A. C. Simmonett,  A. Sodt,  
 D. Stuck,  K. S. Thanthiriwatte,  V. Vanovschi,  Tao Wang,  A. Warshel,  
 C. F. Williams,  Q. Wu,  X. Xu,  W. Zhang

 Please cite Q-Chem as follows:
 Y. Shao et al., Mol. Phys. 113, 184-215 (2015)
 DOI: 10.1080/00268976.2014.952696

 Q-Chem 5.2.1 for Intel X86 EM64T Linux

 Parts of Q-Chem use Armadillo 8.300.2 (Tropical Shenanigans).
 http://arma.sourceforge.net/

 Q-Chem begins on Mon Feb  7 14:30:32 2022  

Host: 
0

     Scratch files written to /gpfs/fs0/scratch/a/aspuru/rhickman/descriptor_computation/qchem80323//
 Jul1719 |scratch|qcdevops|jenkins|workspace|build_RNUM -1
Processing $rem in /scinet/niagara/software/commercial/qc52/config/preferences:
	 MEM_TOTAL  4000 
NAlpha2: 174
NElect   174
Mult     1

Checking the input file for inconsistencies... 	...done.

--------------------------------------------------------------
User input:
--------------------------------------------------------------
$molecule
0 1
C         2.76990581630000    5.22446350840000   -0.23380734580000
O         1.84510696100000    4.16555874640000   -0.23934461760000
C         2.30760887570000    2.88675863210000   -0.12511276090000
C         3.65745553680000    2.54380044810000    0.00122503100000
C         4.04386717670000    1.22060822690000    0.09325866350000
C         1.32258429570000    1.90210438900000   -0.14499445160000
C         1.71360470000000    0.58161012990000   -0.02682095450000
C         3.07872212760000    0.22656099950000    0.07639908190000
C         3.12772662720000   -1.20784798090000    0.12852751610000
C         4.16368051670000   -2.12360436010000    0.25033420000000
C         3.85571960860000   -3.46917166780000    0.29799829680000
C         2.53402692130000   -3.90264304450000    0.24340100290000
C         1.48574118870000   -3.00893079710000    0.12203969430000
C         1.79068074680000   -1.65863132230000    0.04537000850000
N         0.94466528590000   -0.56639269240000   -0.04778477640000
C        -0.44722779410000   -0.61812966880000   -0.14950163250000
C        -1.05595357140000   -1.46709081650000   -1.07242185560000
C        -2.42996785670000   -1.51862236380000   -1.16377791730000
C        -3.24028777730000   -0.72459925090000   -0.34739246080000
C        -4.68059874410000   -0.83082454620000   -0.50188151380000
C        -5.63225004290000   -0.18372069280000    0.15549386710000
F        -5.49433897330000    0.72069301050000    1.11799590600000
F        -6.93099708440000   -0.36856293030000   -0.07803273850000
C        -2.62115005010000    0.12668033870000    0.57119541270000
C        -1.24668103140000    0.17642646300000    0.67044129390000
H         2.17705844750000    6.13204808890000   -0.33785911650000
H         3.47018811820000    5.15347070950000   -1.07254976320000
H         3.33048072130000    5.26632319470000    0.70586970100000
H         4.41528066450000    3.31041322970000    0.01845846600000
H         5.08978098820000    0.96647134290000    0.17365899820000
H         0.29271703470000    2.19659201300000   -0.26393144940000
H         5.18707557000000   -1.78567517860000    0.31181592730000
H         4.64719733740000   -4.19797272700000    0.38988883280000
H         2.32121446290000   -4.95987666810000    0.30132390500000
H         0.46374891960000   -3.35607961510000    0.10241323670000
H        -0.44398161290000   -2.06898993700000   -1.72692292320000
H        -2.88916029780000   -2.17770206830000   -1.88599532910000
H        -5.03459922330000   -1.52668138160000   -1.24904562780000
H        -3.21280678720000    0.74937128320000    1.22160183880000
H        -0.78125410550000    0.82121375090000    1.39994603270000
$end

$rem
BASIS = 6-31G*
GUI = 2
METHOD = B3LYP
PRINT_ORBITALS false
MOLDEN_FORMAT false
--------------------------------------------------------------
 ----------------------------------------------------------------
             Standard Nuclear Orientation (Angstroms)
    I     Atom           X                Y                Z
 ----------------------------------------------------------------
    1      C       3.2693365337    -4.8648215739     0.2226233461
    2      O       2.2275084380    -3.9208306004     0.2287991085
    3      C       2.5379019083    -2.5968211650     0.1150380466
    4      C       3.8385903247    -2.0989366710    -0.0114065511
    5      C       4.0682465757    -0.7397081207    -0.1029355279
    6      C       1.4449088519    -1.7335954441     0.1355372367
    7      C       1.6794504523    -0.3764989778     0.0178663432
    8      C       2.9939031031     0.1351631525    -0.0854581225
    9      C       2.8755051529     1.5655394933    -0.1369691583
   10      C       3.7977277908     2.5957652257    -0.2585727020
   11      C       3.3351415018     3.8963291162    -0.3055903428
   12      C       1.9719724674     4.1728989309    -0.2505523570
   13      C       1.0349344591     3.1631312880    -0.1293822124
   14      C       1.4950780375     1.8575036114    -0.0533604790
   15      N       0.7820481780     0.6741293490     0.0394779465
   16      C      -0.6063740611     0.5633673166     0.1414820529
   17      C      -1.3096092572     1.3352766447     1.0648888368
   18      C      -2.6802529269     1.2263970786     1.1565286607
   19      C      -3.3927794642     0.3437407138     0.3399504547
   20      C      -4.8356233591     0.2814355412     0.4947597649
   21      C      -5.7055921345    -0.4718268273    -0.1627173198
   22      F      -5.4635190015    -1.3536278813    -1.1256406212
   23      F      -7.0169725231    -0.4395955429     0.0711369654
   24      C      -2.6789321195    -0.4292604485    -0.5791269728
   25      C      -1.3080466392    -0.3185514005    -0.6786559217
   26      H       2.7862490711    -5.8353179730     0.3263912958
   27      H       3.9567863593    -4.7130997984     1.0612635328
   28      H       3.8307465462    -4.8407228074    -0.7171784718
   29      H       4.6805367725    -2.7720663166    -0.0291190207
   30      H       5.0774258908    -0.3654565524    -0.1834236902
   31      H       0.4563755214    -2.1460701883     0.2545413770
   32      H       4.8535002868     2.3793494114    -0.3203966580
   33      H       4.0363323234     4.7123868632    -0.3973129397
   34      H       1.6374650636     5.1981768549    -0.3079728700
   35      H      -0.0205285852     3.3888846071    -0.1094097599
   36      H      -0.7717442618     2.0040827691     1.7195364453
   37      H      -3.2129062051     1.8272149898     1.8791212620
   38      H      -5.2680777317     0.9310210841     1.2422951325
   39      H      -3.1941976672    -1.1163526056    -1.2296928873
   40      H      -0.7708675960    -0.9044450649    -1.4085307902
 ----------------------------------------------------------------
 Molecular Point Group                 C1    NOp =  1
 Largest Abelian Subgroup              C1    NOp =  1
 Nuclear Repulsion Energy =        1994.85308520 hartrees
 There are       87 alpha and       87 beta electrons
 Requested basis set is 6-31G(d)
 There are 130 shells and 405 basis functions

 Total QAlloc Memory Limit   4000 MB
 Mega-Array Size       188 MB
 MEM_STATIC part       192 MB
 A cutoff of  1.0D-08 yielded   3840 shell pairs
 There are     40568 function pairs
 Smallest overlap matrix eigenvalue = 2.53E-04

 Scale SEOQF with 1.000000e-02/1.000000e-02/1.000000e-01

 Standard Electronic Orientation quadrupole field applied
 Nucleus-field energy     =     0.0000000085 hartrees
 Guess from superposition of atomic densities
 Warning:  Energy on first SCF cycle will be non-variational
 SAD guess density has 174.000000 electrons

 -----------------------------------------------------------------------
  General SCF calculation program by
  Eric Jon Sundstrom, Paul Horn, Yuezhi Mao, Dmitri Zuev, Alec White,
  David Stuck, Shaama M.S., Shane Yost, Joonho Lee, David Small,
  Daniel Levine, Susi Lehtola, Hugh Burton, Evgeny Epifanovsky,
  Bang C. Huynh
 -----------------------------------------------------------------------
 Exchange:     0.2000 Hartree-Fock + 0.0800 Slater + 0.7200 B88
 Correlation:  0.1900 VWN1RPA + 0.8100 LYP
 Using SG-1 standard quadrature grid
 A restricted SCF calculation will be
 performed using DIIS
 SCF converges when DIIS error is below 1.0e-05
 ---------------------------------------
  Cycle       Energy         DIIS error
 ---------------------------------------
    1   -1145.4707786660      4.14e-02  
    2   -1138.5633307057      4.02e-03  
    3   -1138.3572117856      5.17e-03  
    4   -1138.8737792393      1.26e-03  
    5   -1138.9041109319      4.36e-04  
    6   -1138.9074275203      2.21e-04  
    7   -1138.9084900487      4.54e-05  
    8   -1138.9085222508      2.24e-05  
    9   -1138.9085328261      4.19e-06  Convergence criterion met
 ---------------------------------------
 SCF time:   CPU 120.75s  wall 121.00s 
 SCF   energy in the final basis set =    -1138.9085328261
 Total energy in the final basis set =    -1138.9085328261
 
 --------------------------------------------------------------
 
                    Orbital Energies (a.u.)
 --------------------------------------------------------------
 
 Alpha MOs
 -- Occupied --
-24.7475 -24.7366 -19.1738 -14.3808 -10.3597 -10.2431 -10.2375 -10.2357
-10.2212 -10.2177 -10.2110 -10.2065 -10.1986 -10.1968 -10.1963 -10.1955
-10.1873 -10.1818 -10.1816 -10.1809 -10.1799 -10.1785 -10.1784 -10.1778
-10.1748  -1.2881  -1.2271  -1.0638  -0.9999  -0.8797  -0.8500  -0.8458
 -0.8120  -0.7821  -0.7636  -0.7556  -0.7486  -0.7310  -0.7163  -0.6864
 -0.6600  -0.6348  -0.6302  -0.6116  -0.6041  -0.5800  -0.5765  -0.5725
 -0.5455  -0.5351  -0.5285  -0.5216  -0.5068  -0.4905  -0.4791  -0.4722
 -0.4683  -0.4607  -0.4539  -0.4495  -0.4435  -0.4399  -0.4372  -0.4329
 -0.4312  -0.4307  -0.4156  -0.4128  -0.4086  -0.3862  -0.3849  -0.3795
 -0.3682  -0.3649  -0.3567  -0.3484  -0.3369  -0.3333  -0.3238  -0.3176
 -0.2979  -0.2641  -0.2597  -0.2508  -0.2329  -0.1972  -0.1922
 -- Virtual --
 -0.0355  -0.0193  -0.0098   0.0109   0.0337   0.0542   0.0651   0.0824
  0.1001   0.1050   0.1158   0.1166   0.1342   0.1380   0.1489   0.1531
  0.1581   0.1600   0.1659   0.1704   0.1728   0.1750   0.1781   0.1900
  0.1938   0.2035   0.2086   0.2155   0.2203   0.2378   0.2668   0.2681
  0.2773   0.2841   0.2926   0.3092   0.3112   0.3230   0.3265   0.3484
  0.3559   0.3724   0.4068   0.4073   0.4184   0.4327   0.4404   0.4626
  0.4772   0.4933   0.4965   0.5067   0.5117   0.5252   0.5301   0.5312
  0.5342   0.5368   0.5410   0.5455   0.5567   0.5619   0.5656   0.5662
  0.5716   0.5765   0.5808   0.5852   0.5866   0.5917   0.5948   0.5964
  0.5990   0.6043   0.6134   0.6158   0.6214   0.6266   0.6279   0.6369
  0.6417   0.6487   0.6564   0.6578   0.6654   0.6728   0.7002   0.7104
  0.7202   0.7294   0.7439   0.7493   0.7740   0.7895   0.7987   0.8058
  0.8136   0.8247   0.8336   0.8397   0.8419   0.8470   0.8520   0.8562
  0.8612   0.8651   0.8665   0.8700   0.8781   0.8849   0.8984   0.9050
  0.9136   0.9239   0.9354   0.9407   0.9485   0.9527   0.9706   0.9851
  0.9875   1.0022   1.0129   1.0162   1.0281   1.0415   1.0501   1.0605
  1.0713   1.0890   1.0935   1.1088   1.1184   1.1362   1.1547   1.1576
  1.1693   1.1729   1.1815   1.1894   1.2044   1.2159   1.2244   1.2307
  1.2434   1.2505   1.2662   1.2715   1.2809   1.2951   1.3252   1.3344
  1.3399   1.3526   1.3599   1.3793   1.3842   1.4003   1.4142   1.4216
  1.4372   1.4436   1.4483   1.4547   1.4549   1.4629   1.4721   1.4777
  1.4850   1.4869   1.4965   1.4994   1.5107   1.5115   1.5297   1.5542
  1.5899   1.6239   1.6290   1.6388   1.6832   1.7125   1.7224   1.7329
  1.7651   1.7709   1.7797   1.7799   1.7857   1.7973   1.8092   1.8206
  1.8339   1.8361   1.8394   1.8588   1.8689   1.8777   1.8947   1.8998
  1.9049   1.9134   1.9362   1.9413   1.9588   1.9623   1.9668   1.9696
  1.9849   1.9873   1.9964   2.0061   2.0133   2.0241   2.0327   2.0342
  2.0696   2.0728   2.0928   2.0965   2.1078   2.1221   2.1263   2.1362
  2.1441   2.1485   2.1539   2.1564   2.1760   2.1994   2.2137   2.2193
  2.2360   2.2382   2.2507   2.2635   2.2679   2.2870   2.2965   2.3019
  2.3153   2.3178   2.3384   2.3507   2.3556   2.3847   2.3901   2.4062
  2.4266   2.4853   2.4894   2.5192   2.5272   2.5403   2.5436   2.5749
  2.5905   2.6080   2.6096   2.6218   2.6512   2.6535   2.6637   2.6756
  2.6944   2.6995   2.7049   2.7290   2.7347   2.7559   2.7675   2.7767
  2.7966   2.8267   2.8390   2.8520   2.8826   2.9095   2.9165   2.9427
  2.9809   3.0022   3.0068   3.0550   3.1116   3.1427   3.1951   3.2733
  3.3131   3.3835   3.4102   3.4972   3.5748   4.0579   4.0733   4.0993
  4.1086   4.1133   4.1279   4.1487   4.1623   4.1733   4.1776   4.2328
  4.2857   4.3058   4.3455   4.3506   4.3879   4.4343   4.4713   4.5187
  4.6355   4.7168   4.7808   4.8288   4.8901   5.2870
 --------------------------------------------------------------
 
          Ground-State Mulliken Net Atomic Charges

     Atom                 Charge (a.u.)
  ----------------------------------------
      1 C                    -0.212618
      2 O                    -0.511082
      3 C                     0.386703
      4 C                    -0.216689
      5 C                    -0.204192
      6 C                    -0.250347
      7 C                     0.327048
      8 C                     0.063785
      9 C                     0.062569
     10 C                    -0.197743
     11 C                    -0.145155
     12 C                    -0.140057
     13 C                    -0.178679
     14 C                     0.311897
     15 N                    -0.743907
     16 C                     0.290443
     17 C                    -0.160722
     18 C                    -0.208572
     19 C                     0.204012
     20 C                    -0.299825
     21 C                     0.544562
     22 F                    -0.234213
     23 F                    -0.247640
     24 C                    -0.208479
     25 C                    -0.159352
     26 H                     0.167520
     27 H                     0.150274
     28 H                     0.149749
     29 H                     0.124841
     30 H                     0.131616
     31 H                     0.146164
     32 H                     0.126050
     33 H                     0.120219
     34 H                     0.123241
     35 H                     0.137745
     36 H                     0.154257
     37 H                     0.134364
     38 H                     0.160756
     39 H                     0.145365
     40 H                     0.156091
  ----------------------------------------
  Sum of atomic charges =     0.000000

 -----------------------------------------------------------------
                    Cartesian Multipole Moments
 -----------------------------------------------------------------
    Charge (ESU x 10^10)
                 0.0000
    Dipole Moment (Debye)
         X       0.6249      Y      -0.5034      Z       0.5285
       Tot       0.9609
    Quadrupole Moments (Debye-Ang)
        XX    -132.0089     XY     -11.4285     YY    -127.4982
        XZ      -3.4348     YZ       2.9194     ZZ    -142.2307
    Octopole Moments (Debye-Ang^2)
       XXX      26.0573    XXY     -25.0098    XYY      18.3950
       YYY     -69.5136    XXZ      10.3267    XYZ     -11.1821
       YYZ       1.6252    XZZ     -47.2453    YZZ     -14.1562
       ZZZ      -4.4506
    Hexadecapole Moments (Debye-Ang^3)
      XXXX   -9209.7320   XXXY    -175.1171   XXYY   -2028.8823
      XYYY    -174.8743   YYYY   -3912.0681   XXXZ     -47.5162
      XXYZ       7.7711   XYYZ       1.7268   YYYZ     -14.4424
      XXZZ   -1610.4312   XYZZ     -18.2601   YYZZ    -822.7165
      XZZZ      49.6244   YZZZ      28.6205   ZZZZ    -358.3779
 -----------------------------------------------------------------
Archival summary:
1\1\nia1977.scinet.local\SP\ProcedureUnspecified\6-31G*\2112115\rhickman\MonFeb714:32:332022MonFeb714:32:332022\0\\#,ProcedureUnspecified,6-31G*,\\0,1\N\C,1,1.38189\C,2,1.38223,1,129.415\H,3,1.07773,2,122.739,1,0.788712,0\C,1,1.3847,2,108.318,3,177.279,0\C,5,1.38643,1,129.611,2,176.878,0\H,6,1.07952,5,121.36,1,0.771885,0\C,6,1.38288,5,117.876,1,-178.364,0\H,8,1.07999,6,119.208,5,-179.784,0\C,8,1.39203,6,121.462,5,0.484442,0\H,10,1.07983,8,119.281,6,-179.809,0\C,10,1.38118,8,120.912,6,0.872615,0\H,12,1.0795,10,120.956,8,178.808,0\C,12,1.38804,10,118.643,8,-0.848783,0\C,3,1.39292,2,118.298,1,-178.405,0\O,15,1.36466,3,114.933,2,-179.664,0\C,1,1.39656,2,125.906,3,-2.54569,0\C,17,1.39383,1,120.51,2,-48.6444,0\H,18,1.07914,17,119.4,1,-1.11848,0\C,18,1.37895,17,120.584,1,179.992,0\H,20,1.07742,18,118.886,17,179.724,0\C,17,1.39394,1,120.399,2,131.425,0\H,22,1.07943,17,119.57,1,-1.47134,0\C,22,1.37801,17,120.139,1,179.686,0\H,24,1.0802,22,119.407,17,179.747,0\C,20,1.39707,18,120.733,17,0.310754,0\C,15,1.39845,3,120.698,2,0.471903,0\H,27,1.0781,15,120.368,3,-179.849,0\C,27,1.38153,15,120.723,3,0.76166,0\H,29,1.07934,27,120.1,15,178.964,0\C,29,1.38561,27,119.438,15,-0.801536,0\C,16,1.4059,15,118.851,3,-179.767,0\H,32,1.08904,16,105.618,15,179.852,0\H,32,1.09495,16,111.644,15,61.267,0\H,32,1.09498,16,111.65,15,-61.573,0\C,26,1.45246,20,123.639,18,179.787,0\H,36,1.08064,26,116.454,20,179.97,0\C,36,1.32534,26,128.577,20,-0.0267465,0\F,38,1.32793,36,128.132,26,-0.0340977,0\F,38,1.33246,36,123.039,26,-179.998,0\\\@

 Total job time:  121.48s(wall), 121.16s(cpu) 
 Mon Feb  7 14:32:33 2022

        *************************************************************
        *                                                           *
        *  Thank you very much for using Q-Chem.  Have a nice day.  *
        *                                                           *
        *************************************************************


