20
 energy: -30.666016714158 gnorm: 0.000066059383 xtb: 6.4.1 (23d549d)
C        -3.73504507990000    0.81266058920000   -0.01383955360000
C        -3.01414021540000   -0.30181658510000   -0.03270211460000
C        -1.55932109670000   -0.40600566330000   -0.01543324310000
C        -0.97490729660000   -1.67435681330000   -0.01591438530000
C         0.39771254270000   -1.81352166180000    0.00413176060000
C         1.20185399320000   -0.68936839970000    0.02015071210000
F         2.53684095370000   -0.89379340370000    0.04633631500000
C         0.67166380340000    0.60374150680000    0.01734479290000
C         1.45261522290000    1.83589113420000    0.03210199830000
C         2.77094272500000    1.96693445240000   -0.05790656020000
C        -0.71982857830000    0.70372452070000    0.00287322560000
H        -4.81085477820000    0.78100347620000   -0.02887219610000
H        -3.29566122440000    1.79476183740000    0.01735655420000
H        -3.52779335220000   -1.25513149050000   -0.06263291900000
H        -1.60087314150000   -2.55427266020000   -0.02937647150000
H         0.86260213810000   -2.78729599340000    0.00822744590000
H         0.84527256270000    2.72941273010000    0.11869349160000
H         3.44433285130000    1.13521988340000   -0.15482004590000
H         3.22656929050000    2.94286099390000   -0.03880701890000
H        -1.15200631660000    1.69268611420000    0.00221418390000
