23
 energy: -38.068003271376 gnorm: 0.000074943777 xtb: 6.5.0 (unknown)
C           -2.28585234220000        3.65991724200000        0.10186518820000
C           -2.67565842120000        2.40065439270000       -0.05184875070000
C           -1.82445994350000        1.21556621440000       -0.03476999970000
C           -2.42591014390000       -0.04412119150000       -0.02384169300000
C           -1.67127299600000       -1.20627272580000       -0.00202975030000
C           -2.32811405880000       -2.55282333050000        0.02963376710000
C           -0.28628587930000       -1.11327207070000        0.00318420450000
C            0.34510791800000        0.12989806380000       -0.01495902980000
C            1.79198156190000        0.28947581670000       -0.01773621890000
C            2.72810892750000       -0.64686838900000       -0.00030441540000
F            2.57243663050000       -1.96577016540000        0.02303635430000
F            4.03260005100000       -0.37043732010000       -0.00429155140000
C           -0.43531514570000        1.28441624570000       -0.03386421300000
H           -2.99342965580000        4.47083815360000        0.07905708540000
H           -1.25847108660000        3.93839769450000        0.26236347840000
H           -3.72944421050000        2.19278650630000       -0.19284447480000
H           -3.50497986240000       -0.11209735960000       -0.02858642380000
H           -3.38547905420000       -2.47803078500000       -0.21093260230000
H           -2.23225466010000       -2.99051352610000        1.02324301810000
H           -1.85180341500000       -3.22828792370000       -0.67805029440000
H            0.29448008990000       -2.02110909720000        0.01801347190000
H            2.16377989960000        1.30405144590000       -0.03559512610000
H            0.05416685680000        2.24550354270000       -0.05766123960000
