23
 energy: -38.068074935184 gnorm: 0.000125257282 xtb: 6.5.0 (unknown)
C           -1.41233859380000        3.40836848470000        0.05992235720000
C           -2.11633019350000        2.28831996010000       -0.04719691550000
C           -1.59507917610000        0.92526814470000       -0.03043240360000
C           -2.49901253050000       -0.13800038860000       -0.01385269570000
C           -2.06759614410000       -1.45526322710000        0.00431919030000
C           -3.04847745620000       -2.58776024460000        0.04381341690000
C           -0.70471648690000       -1.71074952290000        0.00270268690000
C            0.22559236570000       -0.67027472910000       -0.01673391860000
C            1.63787825020000       -1.02309745050000       -0.02066783880000
C            2.69152183980000       -0.22141930500000       -0.00006609460000
F            2.71479867080000        1.10643312050000        0.02891876570000
F            3.94701610660000       -0.67077093280000       -0.00371508570000
C           -0.23157905850000        0.64453669550000       -0.03473217710000
H           -1.89132411230000        4.37228066090000        0.04017276210000
H           -0.34223692990000        3.41821593490000        0.17497542330000
H           -3.19312575840000        2.35410285040000       -0.14804740110000
H           -3.55964468450000        0.07208630530000       -0.01340791720000
H           -4.03458169980000       -2.26046590440000       -0.27565843450000
H           -3.13023844040000       -2.97359013340000        1.06027584430000
H           -2.72221391840000       -3.40359696360000       -0.59776564890000
H           -0.35719190240000       -2.73397927800000        0.01491281320000
H            1.86959141330000       -2.07856112100000       -0.03820691600000
H            0.47253052070000        1.45745374720000       -0.06163460660000
