
Running Job 1 of 1 tidas/B057/conf-1/spe_input.inp
qchem tidas/B057/conf-1/spe_input.inp_248598.0 /home/a/aspuru/seifridm/acdc_laser/descriptor_computation/qchem248598/ 0
/gpfs/fs1/scinet/niagara/software/commercial/qc54/exe/qcprog.exe_s tidas/B057/conf-1/spe_input.inp_248598.0 /home/a/aspuru/seifridm/acdc_laser/descriptor_computation/qchem248598/
                  Welcome to Q-Chem
     A Quantum Leap Into The Future Of Chemistry


 Q-Chem 5.4, Q-Chem, Inc., Pleasanton, CA (2021)

 License issued to: SRG Alan Aspuru-Guzik, University of Toronto

 E. Epifanovsky,  A. T. B. Gilbert,  Xintian Feng,  Joonho Lee,  Yuezhi Mao,  
 N. Mardirossian,  P. Pokhilko,  A. White,  M. Wormit,  M. P. Coons,  
 A. L. Dempwolff,  Zhengting Gan,  D. Hait,  P. R. Horn,  L. D. Jacobson,  
 I. Kaliman,  J. Kussmann,  A. W. Lange,  Ka Un Lao,  D. S. Levine,  Jie Liu,  
 S. C. McKenzie,  A. F. Morrison,  K. Nanda,  F. Plasser,  D. R. Rehn,  
 M. L. Vidal,  Zhi-Qiang You,  Ying Zhu,  B. Alam,  B. Albrecht,  
 A. Aldossary,  E. Alguire,  J. H. Andersen,  D. Barton,  K. Begam,  A. Behn,  
 Y. A. Bernard,  E. J. Berquist,  H. Burton,  A. Carreras,  K. Carter-Fenk,  
 Romit Chakraborty,  A. D. Chien,  K. D. Closser,  V. Cofer-Shabica,  
 S. Dasgupta,  Jia Deng,  M. de Wergifosse,  M. Diedenhofen,  Hainam Do,  
 S. Ehlert,  Po-Tung Fang,  S. Fatehi,  Qingguo Feng,  T. Friedhoff,  
 J. Gayvert,  Qinghui Ge,  G. Gidofalvi,  M. Goldey,  J. Gomes,  
 C. Gonzalez-Espinoza,  S. Gulania,  A. Gunina,  M. W. D. Hanson-Heine,  
 P. H. P. Harbach,  A. W. Hauser,  M. F. Herbst,  M. Hernandez Vera,  
 M. Hodecker,  Z. C. Holden,  S. Houck,  Xunkun Huang,  Kerwin Hui,  
 B. C. Huynh,  M. Ivanov,  Hyunjun Ji,  Hanjie Jiang,  B. Kaduk,  S. Kaehler,  
 K. Khistyaev,  Jaehoon Kim,  P. Klunzinger,  Z. Koczor-Benda,  
 Joong Hoon Koh,  D. Kosenkov,  L. Koulias,  T. Kowalczyk,  C. M. Krauter,  
 K. Kue,  A. Kunitsa,  T. Kus,  A. Landau,  K. V. Lawler,  D. Lefrancois,  
 S. Lehtola,  Rain Li,  Yi-Pei Li,  Jiashu Liang,  M. Liebenthal,  
 Hung-Hsuan Lin,  You-Sheng Lin,  Fenglai Liu,  Kuan-Yu Liu,  
 M. Loipersberger,  A. Luenser,  A. Manjanath,  P. Manohar,  E. Mansoor,  
 S. F. Manzer,  Shan-Ping Mao,  A. V. Marenich,  T. Markovich,  S. Mason,  
 S. A. Maurer,  P. F. McLaughlin,  M. F. S. J. Menger,  J.-M. Mewes,  
 S. A. Mewes,  P. Morgante,  J. W. Mullinax,  K. J. Oosterbaan,  G. Paran,  
 Alexander C. Paul,  Suranjan K. Paul,  F. Pavosevic,  Zheng Pei,  S. Prager,  
 E. I. Proynov,  E. Ramos,  B. Rana,  A. E. Rask,  A. Rettig,  R. M. Richard,  
 F. Rob,  E. Rossomme,  T. Scheele,  M. Scheurer,  M. Schneider,  
 N. Sergueev,  S. M. Sharada,  W. Skomorowski,  D. W. Small,  C. J. Stein,  
 Yu-Chuan Su,  E. J. Sundstrom,  Zhen Tao,  J. Thirman,  T. Tsuchimochi,  
 N. M. Tubman,  S. P. Veccham,  O. Vydrov,  J. Wenzel,  J. Witte,  A. Yamada,  
 Kun Yao,  S. Yeganeh,  S. R. Yost,  A. Zech,  Igor Ying Zhang,  Xing Zhang,  
 Yu Zhang,  D. Zuev,  A. Aspuru-Guzik,  A. T. Bell,  N. A. Besley,  
 K. B. Bravaya,  B. R. Brooks,  D. Casanova,  Jeng-Da Chai,  S. Coriani,  
 C. J. Cramer,  A. E. DePrince, III,  R. A. DiStasio Jr.,  A. Dreuw,  
 B. D. Dunietz,  T. R. Furlani,  W. A. Goddard III,  S. Grimme,  
 S. Hammes-Schiffer,  T. Head-Gordon,  W. J. Hehre,  Chao-Ping Hsu,  
 T.-C. Jagau,  Yousung Jung,  A. Klamt,  Jing Kong,  D. S. Lambrecht,  
 WanZhen Liang,  N. J. Mayhall,  C. W. McCurdy,  J. B. Neaton,  T. Neudecker,  
 C. Ochsenfeld,  J. A. Parkhill,  R. Peverati,  V. A. Rassolov,  Yihan Shao,  
 L. V. Slipchenko,  R. P. Steele,  J. E. Subotnik,  A. J. W. Thom,  
 A. Tkatchenko,  D. G. Truhlar,  T. Van Voorhis,  T. A. Wesolowski,  
 K. B. Whaley,  H. L. Woodcock III,  P. M. Zimmerman,  S. Faraji,  
 P. M. W. Gill,  M. Head-Gordon,  J. M. Herbert,  A. I. Krylov

 Additional authors since Version 5.4.0: 
 Chandrima Chakravarty,  L. Cunha,  R. Kang,  Yongbin Kim,  S. Kotaru,  
 Shaozhi Li,  Xiangyuan Li,  F. Matz,  A. Molle,  V. Parravicini,  
 Haisheng Ren,  Hengyuan Shen,  Yingli Su,  Hung-Yi Tsai,  C. Utku,  
 Fang Wang,  Jeff Yang,  F. Zeller

 Contributors to earlier versions of Q-Chem not listed above: 
 R. D. Adamson,  B. Austin,  R. Baer,  J. Baker,  G. J. O. Beran,  
 K. Brandhorst,  S. T. Brown,  E. F. C. Byrd,  Arup K. Chakraborty,  
 G. K. L. Chan,  Chun-Min Chang,  Yunqing Chen,  C.-L. Cheng,  
 Siu Hung Chien,  D. M. Chipman,  D. L. Crittenden,  H. Dachsel,  
 R. J. Doerksen,  A. D. Dutoi,  R. G. Edgar,  J. Fosso-Tande,  
 L. Fusti-Molnar,  D. Ghosh,  A. Ghysels,  A. Golubeva-Zadorozhnaya,  
 J. Gonthier,  M. S. Gordon,  S. R. Gwaltney,  G. Hawkins,  J. E. Herr,  
 A. Heyden,  S. Hirata,  E. G. Hohenstein,  G. Kedziora,  F. J. Keil,  
 C. Kelley,  Jihan Kim,  R. A. King,  R. Z. Khaliullin,  P. P. Korambath,  
 W. Kurlancheek,  A. Laurent,  A. M. Lee,  M. S. Lee,  S. V. Levchenko,  
 Ching Yeh Lin,  D. Liotard,  E. Livshits,  R. C. Lochan,  I. Lotan,  
 L. A. Martinez-Martinez,  P. E. Maslen,  N. Nair,  D. P. O'Neill,  
 D. Neuhauser,  E. Neuscamman,  C. M. Oana,  R. Olivares-Amaya,  R. Olson,  
 T. M. Perrine,  B. Peters,  P. A. Pieniazek,  A. Prociuk,  Y. M. Rhee,  
 J. Ritchie,  M. A. Rohrdanz,  E. Rosta,  N. J. Russ,  H. F. Schaefer III,  
 M. W. Schmidt,  N. E. Schultz,  S. Sharma,  N. Shenvi,  C. D. Sherrill,  
 A. C. Simmonett,  A. Sodt,  T. Stein,  D. Stuck,  K. S. Thanthiriwatte,  
 V. Vanovschi,  L. Vogt,  Tao Wang,  A. Warshel,  M. A. Watson,  
 C. F. Williams,  Q. Wu,  X. Xu,  Jun Yang,  W. Zhang,  Yan Zhao

   Please cite Q-Chem as follows:
  "Software for the frontiers of quantum chemistry:
   An overview of developments in the Q-Chem 5 package"
   J. Chem. Phys. 155, 084801 (2021)
   https://doi.org/10.1063/5.0055522 (open access)

 Q-Chem 5.4.2 for Intel X86 EM64T Linux

 Parts of Q-Chem use Armadillo 9.900.5 (Nocturnal Misbehaviour).
 http://arma.sourceforge.net/

 Q-Chem begins on Fri Aug 12 12:44:39 2022  

 Host: 
0

     Scratch files written to /home/a/aspuru/seifridm/acdc_laser/descriptor_computation/qchem248598//
 Dec1321 |scratch|qcdevops|jenkins|workspace|build_RNUM 6959   
 Processing $rem in /gpfs/fs1/scinet/niagara/software/commercial/qc54/config/preferences:
 Processing $rem in /home/a/aspuru/seifridm/.qchemrc:

 Checking the input file for inconsistencies... 	...done.

--------------------------------------------------------------
User input:
--------------------------------------------------------------
$molecule
0 1
C            1.26030704770000       -2.83137716370000       -0.43601295860000
C            1.90809324920000       -1.84385232380000        0.16788005700000
C            1.52004456010000       -0.44063452000000        0.13870133360000
C            2.44003355540000        0.56494960950000        0.07815179490000
S            1.72595710140000        2.12143131620000       -0.02150505790000
C            0.15836270670000        1.43865791510000        0.04605556420000
C            0.17815420720000        0.07369391870000        0.13419047730000
C           -0.99117180340000       -0.76444419600000        0.30172591510000
C           -2.24104167930000       -0.42365376650000        0.02866680270000
F           -2.66300158730000        0.72901179010000       -0.48296697300000
F           -3.28634965640000       -1.22518836350000        0.22448240540000
H            1.61646510100000       -3.84606761140000       -0.38626658150000
H            0.37328045830000       -2.66511725550000       -1.02353555940000
H            2.83132753880000       -2.04880215530000        0.69532848790000
H            3.50774977260000        0.47099083210000        0.05730199670000
H           -0.69534730470000        2.08559330480000        0.04072963340000
H           -0.83317069960000       -1.75540989410000        0.69867694960000
$end

$rem
BASIS = 6-31G*
GUI = 2
METHOD = B3LYP
PRINT_ORBITALS false
MOLDEN_FORMAT false
$end
--------------------------------------------------------------
 ----------------------------------------------------------------
             Standard Nuclear Orientation (Angstroms)
    I     Atom           X                Y                Z
 ----------------------------------------------------------------
    1      C      -0.4213745981    -2.9998463014     0.4616602207
    2      C      -1.3091094871    -2.2175945607    -0.1379463399
    3      C      -1.2973709929    -0.7615975732    -0.1182392782
    4      C      -2.4456828848    -0.0281068899    -0.0502933003
    5      S      -2.1580002794     1.6607836708     0.0354934494
    6      C      -0.4678739974     1.4067053192    -0.0482530926
    7      C      -0.1344642238     0.0826170364    -0.1314054844
    8      C       1.2101786598    -0.4252758898    -0.3098634136
    9      C       2.3319761882     0.2292220899    -0.0528093295
   10      F       2.4464313986     1.4550916968     0.4497848224
   11      F       3.5470618358    -0.2756047989    -0.2582038490
   12      H      -0.5031369284    -4.0724463447     0.4196598164
   13      H       0.3984847068    -2.6058423733     1.0380567498
   14      H      -2.1532876829    -2.6579566055    -0.6537101207
   15      H      -3.4523693392    -0.3951485891    -0.0164752561
   16      H       0.1892019964     2.2526227212    -0.0552840920
   17      H       1.3100006250    -1.4258890055    -0.7014709408
 ----------------------------------------------------------------
 Molecular Point Group                 C1    NOp =  1
 Largest Abelian Subgroup              C1    NOp =  1
 Nuclear Repulsion Energy =         656.63948553 hartrees
 There are       44 alpha and       44 beta electrons
 Requested basis set is 6-31G(d)
 There are 57 shells and 181 basis functions

 Total QAlloc Memory Limit   8000 MB
 Mega-Array Size       188 MB
 MEM_STATIC part       192 MB
 A cutoff of  1.0D-08 yielded   1227 shell pairs
 There are     12975 function pairs
 Smallest overlap matrix eigenvalue = 9.20E-04

 Scale SEOQF with 1.000000e-01/1.000000e-01/1.000000e+00

 Standard Electronic Orientation quadrupole field applied
 Nucleus-field energy     =     0.0000000200 hartrees
 Guess from superposition of atomic densities
 Warning:  Energy on first SCF cycle will be non-variational
 SAD guess density has 88.000000 electrons

 -----------------------------------------------------------------------
  General SCF calculation program by
  Eric Jon Sundstrom, Paul Horn, Yuezhi Mao, Dmitri Zuev, Alec White,
  David Stuck, Shaama M.S., Shane Yost, Joonho Lee, David Small,
  Daniel Levine, Susi Lehtola, Hugh Burton, Evgeny Epifanovsky,
  Bang C. Huynh
 -----------------------------------------------------------------------
 Exchange:     0.2000 Hartree-Fock + 0.0800 Slater + 0.7200 B88
 Correlation:  0.1900 VWN1RPA + 0.8100 LYP
 Using SG-1 standard quadrature grid
 A restricted SCF calculation will be
 performed using DIIS
 SCF converges when DIIS error is below 1.0e-05
 ---------------------------------------
  Cycle       Energy         DIIS error
 ---------------------------------------
    1    -908.7472304057      5.85e-02  
    2    -906.0624621170      6.99e-03  
    3    -905.7737263365      1.06e-02  
    4    -906.2500388488      2.01e-03  
    5    -906.2652844339      6.55e-04  
    6    -906.2667271987      2.41e-04  
    7    -906.2669462758      5.99e-05  
    8    -906.2669624259      1.66e-05  
    9    -906.2669640126      4.60e-06  Convergence criterion met
 ---------------------------------------
 SCF time:   CPU 32.38s  wall 34.00s 
 SCF   energy in the final basis set =     -906.2669640126
 Total energy in the final basis set =     -906.2669640126
 
 --------------------------------------------------------------
 
                    Orbital Energies (a.u.)
 --------------------------------------------------------------
 
 Alpha MOs
 -- Occupied --
-88.9122 -24.7413 -24.7332 -10.3539 -10.2129 -10.2109 -10.2074 -10.2014
-10.2014 -10.1991 -10.1853  -7.9740  -5.9379  -5.9341  -5.9315  -1.2824
 -1.2227  -0.8954  -0.8097  -0.7958  -0.7237  -0.7211  -0.6382  -0.6031
 -0.5852  -0.5752  -0.5431  -0.5174  -0.5166  -0.4819  -0.4519  -0.4423
 -0.4393  -0.4282  -0.4132  -0.4034  -0.3962  -0.3857  -0.3632  -0.3475
 -0.3000  -0.2967  -0.2277  -0.2177
 -- Virtual --
 -0.0286  -0.0114   0.0282   0.0518   0.1016   0.1073   0.1164   0.1288
  0.1357   0.1524   0.1595   0.1678   0.2008   0.2106   0.2524   0.2894
  0.3029   0.3240   0.3513   0.3637   0.3735   0.3887   0.4254   0.4326
  0.4539   0.4906   0.5012   0.5151   0.5283   0.5383   0.5717   0.5777
  0.5864   0.5903   0.5998   0.6191   0.6398   0.6695   0.6864   0.7133
  0.7320   0.7658   0.7835   0.7912   0.8149   0.8270   0.8454   0.8533
  0.8631   0.8714   0.8820   0.9256   0.9426   0.9492   0.9820   1.0005
  1.0146   1.0473   1.0697   1.0775   1.0969   1.1136   1.1426   1.1747
  1.1789   1.1921   1.2146   1.2303   1.2921   1.3301   1.3406   1.3775
  1.4003   1.4233   1.4345   1.4504   1.4791   1.5068   1.5382   1.5719
  1.6625   1.6790   1.7145   1.7352   1.7592   1.7945   1.8050   1.8199
  1.8385   1.8585   1.8797   1.9027   1.9342   1.9746   1.9858   1.9941
  2.0140   2.0318   2.0471   2.1015   2.1270   2.1681   2.1766   2.2175
  2.2446   2.2751   2.3086   2.3444   2.3629   2.4134   2.4464   2.4922
  2.5079   2.5513   2.5669   2.6262   2.6799   2.7156   2.7607   2.7882
  2.8484   3.0044   3.0591   3.0892   3.2334   3.3159   3.9486   4.0877
  4.1071   4.1116   4.1580   4.2577   4.2930   4.3989   4.6416   4.7848
  5.2579
 --------------------------------------------------------------
 
          Ground-State Mulliken Net Atomic Charges

     Atom                 Charge (a.u.)
  ----------------------------------------
      1 C                    -0.347786
      2 C                    -0.119730
      3 C                     0.128237
      4 C                    -0.407817
      5 S                     0.275347
      6 C                    -0.418695
      7 C                     0.164015
      8 C                    -0.298214
      9 C                     0.545097
     10 F                    -0.240246
     11 F                    -0.248431
     12 H                     0.146122
     13 H                     0.157122
     14 H                     0.138237
     15 H                     0.173385
     16 H                     0.179488
     17 H                     0.173869
  ----------------------------------------
  Sum of atomic charges =     0.000000

 -----------------------------------------------------------------
                    Cartesian Multipole Moments
 -----------------------------------------------------------------
    Charge (ESU x 10^10)
                 0.0000
    Dipole Moment (Debye)
         X      -0.9553      Y      -0.8817      Z      -0.2359
       Tot       1.3212
    Quadrupole Moments (Debye-Ang)
        XX     -67.6457     XY       1.5739     YY     -63.9210
        XZ       0.7639     YZ       0.1416     ZZ     -70.6189
    Octopole Moments (Debye-Ang^2)
       XXX      11.1433    XXY      -3.3132    XYY      14.7231
       YYY       4.4946    XXZ      -0.8755    XYZ      -3.9221
       YYZ      -0.3018    XZZ      19.9052    YZZ       3.7942
       ZZZ       2.3160
    Hexadecapole Moments (Debye-Ang^3)
      XXXX   -1517.5995   XXXY      32.9982   XXYY    -430.2400
      XYYY      27.7613   YYYY    -940.3866   XXXZ       7.2646
      XXYZ       6.1158   XYYZ       6.1898   YYYZ       4.7880
      XXZZ    -279.8519   XYZZ       5.1328   YYZZ    -194.0671
      XZZZ       3.4848   YZZZ       7.9757   ZZZZ    -101.0581
 -----------------------------------------------------------------
 Total job time:  34.61s(wall), 32.70s(cpu) 
 Fri Aug 12 12:45:13 2022

        *************************************************************
        *                                                           *
        *  Thank you very much for using Q-Chem.  Have a nice day.  *
        *                                                           *
        *************************************************************


