
Running Job 1 of 1 fragments/B020/conf-1/spe_input.inp
qchem fragments/B020/conf-1/spe_input.inp_305358.0 /gpfs/fs0/scratch/a/aspuru/rhickman/descriptor_computation/qchem305358/ 0
/scinet/niagara/software/commercial/qc52/exe/qcprog.exe_s fragments/B020/conf-1/spe_input.inp_305358.0 /gpfs/fs0/scratch/a/aspuru/rhickman/descriptor_computation/qchem305358/
                  Welcome to Q-Chem
     A Quantum Leap Into The Future Of Chemistry


 Q-Chem 5.2, Q-Chem, Inc., Pleasanton, CA (2019)

 License issued to: SRG Alan Aspuru-Guzik, University of Toronto

 Yihan Shao,  Zhengting Gan,  E. Epifanovsky,  A. T. B. Gilbert,  M. Wormit,  
 J. Kussmann,  A. W. Lange,  A. Behn,  Jia Deng,  Xintian Feng,  D. Ghosh,  
 M. Goldey,  P. R. Horn,  L. D. Jacobson,  I. Kaliman,  T. Kus,  A. Landau,  
 Jie Liu,  E. I. Proynov,  R. M. Richard,  R. P. Steele,  E. J. Sundstrom,  
 H. L. Woodcock III,  P. M. Zimmerman,  D. Zuev,  B. Albrecht,  E. Alguire,  
 S. A. Baeppler,  D. Barton,  Z. Benda,  Y. A. Bernard,  E. J. Berquist,  
 K. B. Bravaya,  H. Burton,  D. Casanova,  Chun-Min Chang,  Yunqing Chen,  
 A. Chien,  K. D. Closser,  M. P. Coons,  S. Coriani,  S. Dasgupta,  
 A. L. Dempwolff,  M. Diedenhofen,  Hainam Do,  R. G. Edgar,  Po-Tung Fang,  
 S. Faraji,  S. Fatehi,  Qingguo Feng,  K. D. Fenk,  J. Fosso-Tande,  
 J. Gayvert,  Qinghui Ge,  A. Ghysels,  G. Gidofalvi,  J. Gomes,  
 J. Gonthier,  A. Gunina,  D. Hait,  M. W. D. Hanson-Heine,  
 P. H. P. Harbach,  A. W. Hauser,  M. F. Herbst,  J. E. Herr,  
 E. G. Hohenstein,  Z. C. Holden,  Kerwin Hui,  B. C. Huynh,  T.-C. Jagau,  
 Hyunjun Ji,  B. Kaduk,  K. Khistyaev,  Jaehoon Kim,  P. Klunzinger,  K. Koh,  
 D. Kosenkov,  L. Koulias,  T. Kowalczyk,  C. M. Krauter,  A. Kunitsa,  
 Ka Un Lao,  A. Laurent,  K. V. Lawler,  Joonho Lee,  D. Lefrancois,  
 S. Lehtola,  D. S. Levine,  Yi-Pei Li,  You-Sheng Lin,  Fenglai Liu,  
 E. Livshits,  A. Luenser,  P. Manohar,  E. Mansoor,  S. F. Manzer,  
 Shan-Ping Mao,  Yuezhi Mao,  N. Mardirossian,  A. V. Marenich,  
 T. Markovich,  L. A. Martinez-Martinez,  S. A. Maurer,  N. J. Mayhall,  
 S. C. McKenzie,  J.-M. Mewes,  P. Morgante,  A. F. Morrison,  
 J. W. Mullinax,  K. Nanda,  T. S. Nguyen-Beck,  R. Olivares-Amaya,  
 J. A. Parkhill,  Zheng Pei,  T. M. Perrine,  F. Plasser,  P. Pokhilko,  
 S. Prager,  A. Prociuk,  E. Ramos,  D. R. Rehn,  F. Rob,  M. Scheurer,  
 M. Schneider,  N. Sergueev,  S. M. Sharada,  S. Sharma,  D. W. Small,  
 T. Stauch,  T. Stein,  Yu-Chuan Su,  A. J. W. Thom,  A. Tkatchenko,  
 T. Tsuchimochi,  N. M. Tubman,  L. Vogt,  M. L. Vidal,  O. Vydrov,  
 M. A. Watson,  J. Wenzel,  M. de Wergifosse,  T. A. Wesolowski,  A. White,  
 J. Witte,  A. Yamada,  Jun Yang,  K. Yao,  S. Yeganeh,  S. R. Yost,  
 Zhi-Qiang You,  A. Zech,  Igor Ying Zhang,  Xing Zhang,  Yan Zhao,  
 Ying Zhu,  B. R. Brooks,  G. K. L. Chan,  C. J. Cramer,  M. S. Gordon,  
 W. J. Hehre,  A. Klamt,  M. W. Schmidt,  C. D. Sherrill,  D. G. Truhlar,  
 A. Aspuru-Guzik,  R. Baer,  A. T. Bell,  N. A. Besley,  Jeng-Da Chai,  
 A. E. DePrince, III,  R. A. DiStasio Jr.,  A. Dreuw,  B. D. Dunietz,  
 T. R. Furlani,  Chao-Ping Hsu,  Yousung Jung,  Jing Kong,  D. S. Lambrecht,  
 WanZhen Liang,  C. Ochsenfeld,  V. A. Rassolov,  L. V. Slipchenko,  
 J. E. Subotnik,  T. Van Voorhis,  J. M. Herbert,  A. I. Krylov,  
 P. M. W. Gill,  M. Head-Gordon

 Contributors to earlier versions of Q-Chem not listed above: 
 R. D. Adamson,  B. Austin,  J. Baker,  G. J. O. Beran,  K. Brandhorst,  
 S. T. Brown,  E. F. C. Byrd,  A. K. Chakraborty,  C.-L. Cheng,  
 Siu Hung Chien,  D. M. Chipman,  D. L. Crittenden,  H. Dachsel,  
 R. J. Doerksen,  A. D. Dutoi,  L. Fusti-Molnar,  W. A. Goddard III,  
 A. Golubeva-Zadorozhnaya,  S. R. Gwaltney,  G. Hawkins,  A. Heyden,  
 S. Hirata,  G. Kedziora,  F. J. Keil,  C. Kelley,  Jihan Kim,  R. A. King,  
 R. Z. Khaliullin,  P. P. Korambath,  W. Kurlancheek,  A. M. Lee,  M. S. Lee,  
 S. V. Levchenko,  Ching Yeh Lin,  D. Liotard,  R. C. Lochan,  I. Lotan,  
 P. E. Maslen,  N. Nair,  D. P. O'Neill,  D. Neuhauser,  E. Neuscamman,  
 C. M. Oana,  R. Olson,  B. Peters,  R. Peverati,  P. A. Pieniazek,  
 Y. M. Rhee,  J. Ritchie,  M. A. Rohrdanz,  E. Rosta,  N. J. Russ,  
 H. F. Schaefer III,  N. E. Schultz,  N. Shenvi,  A. C. Simmonett,  A. Sodt,  
 D. Stuck,  K. S. Thanthiriwatte,  V. Vanovschi,  Tao Wang,  A. Warshel,  
 C. F. Williams,  Q. Wu,  X. Xu,  W. Zhang

 Please cite Q-Chem as follows:
 Y. Shao et al., Mol. Phys. 113, 184-215 (2015)
 DOI: 10.1080/00268976.2014.952696

 Q-Chem 5.2.1 for Intel X86 EM64T Linux

 Parts of Q-Chem use Armadillo 8.300.2 (Tropical Shenanigans).
 http://arma.sourceforge.net/

 Q-Chem begins on Tue Feb  8 13:41:26 2022  

Host: 
0

     Scratch files written to /gpfs/fs0/scratch/a/aspuru/rhickman/descriptor_computation/qchem305358//
 Jul1719 |scratch|qcdevops|jenkins|workspace|build_RNUM -1
Processing $rem in /scinet/niagara/software/commercial/qc52/config/preferences:
	 MEM_TOTAL  4000 
NAlpha2: 94
NElect   94
Mult     1

Checking the input file for inconsistencies... 	...done.

--------------------------------------------------------------
User input:
--------------------------------------------------------------
$molecule
0 1
C        -0.15527887110000   -3.67479859750000    1.03815581080000
C         0.20146204480000   -2.52654517760000    0.47834946000000
C        -0.70278010310000   -1.40698277130000    0.21776221970000
C        -2.04993989980000   -1.62348791370000   -0.06352930790000
C        -2.90211850460000   -0.57299936560000   -0.34605020210000
C        -2.42642962020000    0.72663935840000   -0.34565681880000
C        -1.09035355480000    0.94344209330000   -0.06925429620000
F        -0.64623230620000    2.21543489770000   -0.02580347640000
C        -0.20306492480000   -0.09369467340000    0.20622392590000
C         1.19894425420000    0.18378407920000    0.53288654270000
C         1.97839837750000    1.00823507960000   -0.14647363820000
F         1.67353186100000    1.65236161760000   -1.26063522980000
F         3.24246542680000    1.26169163870000    0.18002340260000
H         0.55588784980000   -4.46634390430000    1.19946277550000
H        -1.16130043410000   -3.86329888280000    1.37326807920000
H         1.23164359190000   -2.37163420750000    0.18602500620000
H        -2.42463877010000   -2.63479524890000   -0.08266981550000
H        -3.94085765780000   -0.76316868730000   -0.56774704880000
H        -3.06788661280000    1.56829120940000   -0.55141402110000
H         1.62676644260000   -0.30541558740000    1.39438924350000
$end

$rem
BASIS = 6-31G*
GUI = 2
METHOD = B3LYP
PRINT_ORBITALS false
MOLDEN_FORMAT false
--------------------------------------------------------------
 ----------------------------------------------------------------
             Standard Nuclear Orientation (Angstroms)
    I     Atom           X                Y                Z
 ----------------------------------------------------------------
    1      C       2.6416281695     2.6195839946     0.1433073619
    2      C       1.5354783562     1.9518527993    -0.1561935379
    3      C       1.3855064147     0.4997626857    -0.0671863915
    4      C       2.4709798336    -0.3477113642    -0.2778380225
    5      C       2.3288841551    -1.7214467268    -0.2307998295
    6      C       1.0928497251    -2.2830557379     0.0378171634
    7      C       0.0146013640    -1.4445655066     0.2447365600
    8      F      -1.1751665694    -1.9992537828     0.5511195435
    9      C       0.1215679541    -0.0573006609     0.1911041725
   10      C      -1.0404002595     0.7966568253     0.4555264560
   11      C      -2.2395635392     0.6159900571    -0.0718874092
   12      F      -2.5830617546    -0.2901172111    -0.9719858686
   13      F      -3.2860583734     1.3909637407     0.1982429333
   14      H       2.6936728422     3.6907074692     0.0521598510
   15      H       3.5287708104     2.1292754171     0.5072955607
   16      H       0.6586902908     2.4916389372    -0.4887572591
   17      H       3.4340470201     0.0818688425    -0.5047092834
   18      H       3.1813314518    -2.3600716388    -0.4033823298
   19      H       0.9515645453    -3.3504291617     0.0919781277
   20      H      -0.9186897271     1.6240772194     1.1375067195
 ----------------------------------------------------------------
 Molecular Point Group                 C1    NOp =  1
 Largest Abelian Subgroup              C1    NOp =  1
 Nuclear Repulsion Energy =         761.91977777 hartrees
 There are       47 alpha and       47 beta electrons
 Requested basis set is 6-31G(d)
 There are 66 shells and 209 basis functions

 Total QAlloc Memory Limit   4000 MB
 Mega-Array Size       188 MB
 MEM_STATIC part       192 MB
 A cutoff of  1.0D-08 yielded   1533 shell pairs
 There are     16548 function pairs
 Smallest overlap matrix eigenvalue = 3.48E-04

 Scale SEOQF with 1.000000e-01/1.000000e-01/1.000000e+00

 Standard Electronic Orientation quadrupole field applied
 Nucleus-field energy     =     0.0000000127 hartrees
 Guess from superposition of atomic densities
 Warning:  Energy on first SCF cycle will be non-variational
 SAD guess density has 94.000000 electrons

 -----------------------------------------------------------------------
  General SCF calculation program by
  Eric Jon Sundstrom, Paul Horn, Yuezhi Mao, Dmitri Zuev, Alec White,
  David Stuck, Shaama M.S., Shane Yost, Joonho Lee, David Small,
  Daniel Levine, Susi Lehtola, Hugh Burton, Evgeny Epifanovsky,
  Bang C. Huynh
 -----------------------------------------------------------------------
 Exchange:     0.2000 Hartree-Fock + 0.0800 Slater + 0.7200 B88
 Correlation:  0.1900 VWN1RPA + 0.8100 LYP
 Using SG-1 standard quadrature grid
 A restricted SCF calculation will be
 performed using DIIS
 SCF converges when DIIS error is below 1.0e-05
 ---------------------------------------
  Cycle       Energy         DIIS error
 ---------------------------------------
    1    -687.6133134763      5.45e-02  
    2    -684.5423537834      6.10e-03  
    3    -684.3708527768      8.24e-03  
    4    -684.7297370074      1.55e-03  
    5    -684.7424178759      4.88e-04  
    6    -684.7433065504      2.64e-04  
    7    -684.7437055676      5.28e-05  
    8    -684.7437187014      2.24e-05  
    9    -684.7437214499      5.39e-06  Convergence criterion met
 ---------------------------------------
 SCF time:   CPU 27.48s  wall 28.00s 
 SCF   energy in the final basis set =     -684.7437214499
 Total energy in the final basis set =     -684.7437214499
 
 --------------------------------------------------------------
 
                    Orbital Energies (a.u.)
 --------------------------------------------------------------
 
 Alpha MOs
 -- Occupied --
-24.7389 -24.7352 -24.7066 -10.3585 -10.2730 -10.2114 -10.2066 -10.2032
-10.1984 -10.1970 -10.1956 -10.1915 -10.1884  -1.2844  -1.2245  -1.2185
 -0.8797  -0.8127  -0.7992  -0.7428  -0.7345  -0.6482  -0.6400  -0.6101
 -0.5776  -0.5709  -0.5419  -0.5219  -0.5164  -0.4989  -0.4817  -0.4662
 -0.4600  -0.4421  -0.4364  -0.4351  -0.4330  -0.4135  -0.4018  -0.3783
 -0.3742  -0.3680  -0.3439  -0.3008  -0.2860  -0.2371  -0.2296
 -- Virtual --
 -0.0415  -0.0112   0.0419   0.0488   0.0935   0.1121   0.1268   0.1338
  0.1506   0.1625   0.1721   0.1824   0.1903   0.1957   0.2138   0.2850
  0.2928   0.3097   0.3366   0.3718   0.3865   0.3980   0.4110   0.4632
  0.4905   0.5001   0.5183   0.5231   0.5275   0.5452   0.5589   0.5649
  0.5728   0.5811   0.5914   0.6003   0.6074   0.6131   0.6251   0.6406
  0.6527   0.6746   0.6843   0.7092   0.7139   0.7553   0.8042   0.8100
  0.8309   0.8355   0.8641   0.8733   0.8795   0.8961   0.9099   0.9363
  0.9479   0.9562   0.9782   0.9933   1.0309   1.0435   1.0737   1.0854
  1.1282   1.1396   1.1646   1.1749   1.1942   1.2089   1.2313   1.2456
  1.2559   1.2682   1.2927   1.3182   1.3497   1.3892   1.4002   1.4220
  1.4322   1.4532   1.4582   1.4690   1.4901   1.5001   1.5407   1.5512
  1.6281   1.6451   1.6718   1.7039   1.7318   1.7599   1.7818   1.7892
  1.8091   1.8256   1.8323   1.8451   1.8602   1.8802   1.8945   1.9183
  1.9329   1.9674   1.9736   1.9829   2.0039   2.0144   2.0389   2.0632
  2.0739   2.0863   2.1415   2.1453   2.1938   2.2079   2.2222   2.2415
  2.2622   2.2788   2.3094   2.3244   2.3358   2.3673   2.4391   2.4603
  2.5214   2.5252   2.5450   2.5612   2.6060   2.6416   2.6606   2.6733
  2.7255   2.7336   2.7673   2.8256   2.8619   2.9547   3.0138   3.0221
  3.1129   3.1312   3.1739   3.3123   3.4650   4.0799   4.0975   4.1046
  4.1210   4.1353   4.2409   4.2905   4.4122   4.4294   4.7081   4.7649
  5.2992   5.5367
 --------------------------------------------------------------
 
          Ground-State Mulliken Net Atomic Charges

     Atom                 Charge (a.u.)
  ----------------------------------------
      1 C                    -0.336836
      2 C                    -0.128308
      3 C                     0.116286
      4 C                    -0.190775
      5 C                    -0.124531
      6 C                    -0.196369
      7 C                     0.331847
      8 F                    -0.291627
      9 C                     0.016861
     10 C                    -0.333870
     11 C                     0.578836
     12 F                    -0.229808
     13 F                    -0.245540
     14 H                     0.147861
     15 H                     0.147694
     16 H                     0.144062
     17 H                     0.132631
     18 H                     0.138300
     19 H                     0.146017
     20 H                     0.177269
  ----------------------------------------
  Sum of atomic charges =     0.000000

 -----------------------------------------------------------------
                    Cartesian Multipole Moments
 -----------------------------------------------------------------
    Charge (ESU x 10^10)
                 0.0000
    Dipole Moment (Debye)
         X       2.0479      Y       0.5968      Z       0.0998
       Tot       2.1354
    Quadrupole Moments (Debye-Ang)
        XX     -69.7656     XY      -1.6736     YY     -65.9815
        XZ      -0.4407     YZ       0.8104     ZZ     -73.6775
    Octopole Moments (Debye-Ang^2)
       XXX     -23.9618    XXY      -4.9870    XYY      -3.8172
       YYY      -7.9939    XXZ      -0.8699    XYZ       1.8982
       YYZ      -1.8057    XZZ     -24.2796    YZZ      -1.1365
       ZZZ      -1.1984
    Hexadecapole Moments (Debye-Ang^3)
      XXXX   -1663.2217   XXXY       1.8840   XXYY    -449.2398
      XYYY     -14.2545   YYYY   -1016.8333   XXXZ       5.7168
      XXYZ       7.2198   XYYZ       4.0761   YYYZ      -2.5658
      XXZZ    -319.0640   XYZZ      -8.1809   YYZZ    -215.9695
      XZZZ      11.8334   YZZZ      -3.5598   ZZZZ    -129.1263
 -----------------------------------------------------------------
Archival summary:
1\1\nia2015.scinet.local\SP\ProcedureUnspecified\6-31G*\3107\rhickman\TueFeb813:41:542022TueFeb813:41:542022\0\\#,ProcedureUnspecified,6-31G*,\\0,1\F\C,1,1.348\C,2,1.38149,1,118.24\H,3,1.07804,2,119.415,1,2.08047,0\C,3,1.38396,2,118.675,1,-177.755,0\H,5,1.07902,3,119.765,2,-179.491,0\C,5,1.38187,3,120.123,2,0.509246,0\H,7,1.07866,5,119.662,3,-178.943,0\C,2,1.39242,1,119.113,3,-177.963,0\C,7,1.39314,5,121.297,3,-0.409569,0\C,10,1.46253,7,120.989,5,-178.239,0\H,11,1.082,10,115.527,7,149.495,0\C,11,1.32632,10,124.864,7,-30.8716,0\H,13,1.07625,11,121.483,10,179.63,0\H,13,1.07699,11,122.283,10,-1.5562,0\C,9,1.46606,2,120.83,1,-0.334664,0\H,16,1.07914,9,118.113,2,131.995,0\C,16,1.32242,9,124.555,2,-47.1344,0\F,18,1.32257,16,126.908,9,-4.40797,0\F,18,1.32993,16,123.568,9,178.899,0\\\@

 Total job time:  27.77s(wall), 27.64s(cpu) 
 Tue Feb  8 13:41:54 2022

        *************************************************************
        *                                                           *
        *  Thank you very much for using Q-Chem.  Have a nice day.  *
        *                                                           *
        *************************************************************


