
Running Job 1 of 1 fragments/C157/conf-6/spe_input.inp
qchem fragments/C157/conf-6/spe_input.inp_253462.0 /gpfs/fs0/scratch/a/aspuru/rhickman/descriptor_computation/qchem253462/ 0
/scinet/niagara/software/commercial/qc52/exe/qcprog.exe_s fragments/C157/conf-6/spe_input.inp_253462.0 /gpfs/fs0/scratch/a/aspuru/rhickman/descriptor_computation/qchem253462/
                  Welcome to Q-Chem
     A Quantum Leap Into The Future Of Chemistry


 Q-Chem 5.2, Q-Chem, Inc., Pleasanton, CA (2019)

 License issued to: SRG Alan Aspuru-Guzik, University of Toronto

 Yihan Shao,  Zhengting Gan,  E. Epifanovsky,  A. T. B. Gilbert,  M. Wormit,  
 J. Kussmann,  A. W. Lange,  A. Behn,  Jia Deng,  Xintian Feng,  D. Ghosh,  
 M. Goldey,  P. R. Horn,  L. D. Jacobson,  I. Kaliman,  T. Kus,  A. Landau,  
 Jie Liu,  E. I. Proynov,  R. M. Richard,  R. P. Steele,  E. J. Sundstrom,  
 H. L. Woodcock III,  P. M. Zimmerman,  D. Zuev,  B. Albrecht,  E. Alguire,  
 S. A. Baeppler,  D. Barton,  Z. Benda,  Y. A. Bernard,  E. J. Berquist,  
 K. B. Bravaya,  H. Burton,  D. Casanova,  Chun-Min Chang,  Yunqing Chen,  
 A. Chien,  K. D. Closser,  M. P. Coons,  S. Coriani,  S. Dasgupta,  
 A. L. Dempwolff,  M. Diedenhofen,  Hainam Do,  R. G. Edgar,  Po-Tung Fang,  
 S. Faraji,  S. Fatehi,  Qingguo Feng,  K. D. Fenk,  J. Fosso-Tande,  
 J. Gayvert,  Qinghui Ge,  A. Ghysels,  G. Gidofalvi,  J. Gomes,  
 J. Gonthier,  A. Gunina,  D. Hait,  M. W. D. Hanson-Heine,  
 P. H. P. Harbach,  A. W. Hauser,  M. F. Herbst,  J. E. Herr,  
 E. G. Hohenstein,  Z. C. Holden,  Kerwin Hui,  B. C. Huynh,  T.-C. Jagau,  
 Hyunjun Ji,  B. Kaduk,  K. Khistyaev,  Jaehoon Kim,  P. Klunzinger,  K. Koh,  
 D. Kosenkov,  L. Koulias,  T. Kowalczyk,  C. M. Krauter,  A. Kunitsa,  
 Ka Un Lao,  A. Laurent,  K. V. Lawler,  Joonho Lee,  D. Lefrancois,  
 S. Lehtola,  D. S. Levine,  Yi-Pei Li,  You-Sheng Lin,  Fenglai Liu,  
 E. Livshits,  A. Luenser,  P. Manohar,  E. Mansoor,  S. F. Manzer,  
 Shan-Ping Mao,  Yuezhi Mao,  N. Mardirossian,  A. V. Marenich,  
 T. Markovich,  L. A. Martinez-Martinez,  S. A. Maurer,  N. J. Mayhall,  
 S. C. McKenzie,  J.-M. Mewes,  P. Morgante,  A. F. Morrison,  
 J. W. Mullinax,  K. Nanda,  T. S. Nguyen-Beck,  R. Olivares-Amaya,  
 J. A. Parkhill,  Zheng Pei,  T. M. Perrine,  F. Plasser,  P. Pokhilko,  
 S. Prager,  A. Prociuk,  E. Ramos,  D. R. Rehn,  F. Rob,  M. Scheurer,  
 M. Schneider,  N. Sergueev,  S. M. Sharada,  S. Sharma,  D. W. Small,  
 T. Stauch,  T. Stein,  Yu-Chuan Su,  A. J. W. Thom,  A. Tkatchenko,  
 T. Tsuchimochi,  N. M. Tubman,  L. Vogt,  M. L. Vidal,  O. Vydrov,  
 M. A. Watson,  J. Wenzel,  M. de Wergifosse,  T. A. Wesolowski,  A. White,  
 J. Witte,  A. Yamada,  Jun Yang,  K. Yao,  S. Yeganeh,  S. R. Yost,  
 Zhi-Qiang You,  A. Zech,  Igor Ying Zhang,  Xing Zhang,  Yan Zhao,  
 Ying Zhu,  B. R. Brooks,  G. K. L. Chan,  C. J. Cramer,  M. S. Gordon,  
 W. J. Hehre,  A. Klamt,  M. W. Schmidt,  C. D. Sherrill,  D. G. Truhlar,  
 A. Aspuru-Guzik,  R. Baer,  A. T. Bell,  N. A. Besley,  Jeng-Da Chai,  
 A. E. DePrince, III,  R. A. DiStasio Jr.,  A. Dreuw,  B. D. Dunietz,  
 T. R. Furlani,  Chao-Ping Hsu,  Yousung Jung,  Jing Kong,  D. S. Lambrecht,  
 WanZhen Liang,  C. Ochsenfeld,  V. A. Rassolov,  L. V. Slipchenko,  
 J. E. Subotnik,  T. Van Voorhis,  J. M. Herbert,  A. I. Krylov,  
 P. M. W. Gill,  M. Head-Gordon

 Contributors to earlier versions of Q-Chem not listed above: 
 R. D. Adamson,  B. Austin,  J. Baker,  G. J. O. Beran,  K. Brandhorst,  
 S. T. Brown,  E. F. C. Byrd,  A. K. Chakraborty,  C.-L. Cheng,  
 Siu Hung Chien,  D. M. Chipman,  D. L. Crittenden,  H. Dachsel,  
 R. J. Doerksen,  A. D. Dutoi,  L. Fusti-Molnar,  W. A. Goddard III,  
 A. Golubeva-Zadorozhnaya,  S. R. Gwaltney,  G. Hawkins,  A. Heyden,  
 S. Hirata,  G. Kedziora,  F. J. Keil,  C. Kelley,  Jihan Kim,  R. A. King,  
 R. Z. Khaliullin,  P. P. Korambath,  W. Kurlancheek,  A. M. Lee,  M. S. Lee,  
 S. V. Levchenko,  Ching Yeh Lin,  D. Liotard,  R. C. Lochan,  I. Lotan,  
 P. E. Maslen,  N. Nair,  D. P. O'Neill,  D. Neuhauser,  E. Neuscamman,  
 C. M. Oana,  R. Olson,  B. Peters,  R. Peverati,  P. A. Pieniazek,  
 Y. M. Rhee,  J. Ritchie,  M. A. Rohrdanz,  E. Rosta,  N. J. Russ,  
 H. F. Schaefer III,  N. E. Schultz,  N. Shenvi,  A. C. Simmonett,  A. Sodt,  
 D. Stuck,  K. S. Thanthiriwatte,  V. Vanovschi,  Tao Wang,  A. Warshel,  
 C. F. Williams,  Q. Wu,  X. Xu,  W. Zhang

 Please cite Q-Chem as follows:
 Y. Shao et al., Mol. Phys. 113, 184-215 (2015)
 DOI: 10.1080/00268976.2014.952696

 Q-Chem 5.2.1 for Intel X86 EM64T Linux

 Parts of Q-Chem use Armadillo 8.300.2 (Tropical Shenanigans).
 http://arma.sourceforge.net/

 Q-Chem begins on Mon Feb  7 08:35:58 2022  

Host: 
0

     Scratch files written to /gpfs/fs0/scratch/a/aspuru/rhickman/descriptor_computation/qchem253462//
 Jul1719 |scratch|qcdevops|jenkins|workspace|build_RNUM -1
Processing $rem in /scinet/niagara/software/commercial/qc52/config/preferences:
	 MEM_TOTAL  4000 
NAlpha2: 102
NElect   102
Mult     1

Checking the input file for inconsistencies... 	...done.

--------------------------------------------------------------
User input:
--------------------------------------------------------------
$molecule
0 1
C         3.82491416360000    2.67354127150000   -0.27964360000000
C         3.58749590720000    1.37416307750000   -0.12834790890000
C         2.27612663180000    0.78262472970000   -0.06426995030000
C         1.01249993980000    1.31085023420000   -0.12564928160000
C         0.10502274030000    0.22924458510000    0.00393133060000
C        -1.34179307980000    0.48195761050000    0.00346129640000
O        -1.82445055240000    1.50994239380000   -0.40786066160000
O        -2.06796442450000   -0.50596563700000    0.54530365780000
C        -3.48115266480000   -0.30881626970000    0.59801366400000
C        -4.14704381580000   -0.66879423370000   -0.72286646530000
C         0.88744012170000   -0.91632111170000    0.12537152410000
C         0.67313535740000   -2.33753619290000    0.22863511000000
C        -0.47554761420000   -3.00405308180000    0.16800284450000
O         2.18833520640000   -0.55930376840000    0.08424251030000
H         4.82829395520000    3.05805649080000   -0.32130999700000
H         3.02674620210000    3.38953753310000   -0.36690785040000
H         4.40168074020000    0.66715946800000   -0.04309629170000
H         0.73143291590000    2.33667293190000   -0.24012794290000
H        -3.68324189970000    0.73802439190000    0.84732161690000
H        -3.82628014100000   -0.95809430430000    1.40558904610000
H        -3.78782029230000   -0.00949879200000   -1.50922943270000
H        -5.22312928800000   -0.55273001790000   -0.63080631610000
H        -3.92319610600000   -1.69803747560000   -0.99443161250000
H         1.60487312330000   -2.87862142080000    0.34380497510000
H        -1.41949721020000   -2.50770577150000    0.05238263960000
H        -0.48961042680000   -4.07768286840000    0.24203700600000
$end

$rem
BASIS = 6-31G*
GUI = 2
METHOD = B3LYP
PRINT_ORBITALS false
MOLDEN_FORMAT false
--------------------------------------------------------------
 ----------------------------------------------------------------
             Standard Nuclear Orientation (Angstroms)
    I     Atom           X                Y                Z
 ----------------------------------------------------------------
    1      C       4.5076422989    -1.3738605104     0.0511566198
    2      C       3.8778400156    -0.2030570956     0.0366668474
    3      C       2.4469866964    -0.0423309584     0.0134533617
    4      C       1.4096389955    -0.9384965959    -0.0049564270
    5      C       0.2103262034    -0.1828347504    -0.0332545670
    6      C      -1.0873642845    -0.8686796637    -0.0857546985
    7      O      -1.2218608560    -2.0336003275     0.2036709794
    8      O      -2.0921323649    -0.1009863724    -0.5307248375
    9      C      -3.3758951355    -0.7181933307    -0.6294969986
   10      C      -4.0985174107    -0.7264738131     0.7104537306
   11      C       0.5983215633     1.1544854252    -0.0165275311
   12      C      -0.0463588315     2.4423669410     0.0302762834
   13      C      -1.3436218052     2.7107314900     0.1420029585
   14      O       1.9463630839     1.2146063312     0.0089780756
   15      H       5.5812797244    -1.4316996776     0.0689430714
   16      H       3.9713576231    -2.3064455554     0.0465013843
   17      H       4.4321675031     0.7257616547     0.0426376153
   18      H       1.4612645790    -2.0070225515    -0.0067796634
   19      H      -3.2486838833    -1.7428774169    -0.9937904321
   20      H      -3.9180652460    -0.1240593277    -1.3683537482
   21      H      -3.5401980538    -1.3234267556     1.4273954408
   22      H      -5.0874329255    -1.1586610988     0.5873027198
   23      H      -4.1992325532     0.2858999295     1.0953601385
   24      H       0.6705294837     3.2539566652    -0.0092945306
   25      H      -2.0859401331     1.9375940079     0.1866287109
   26      H      -1.6899948576     3.7288802477     0.1839380780
 ----------------------------------------------------------------
 Molecular Point Group                 C1    NOp =  1
 Largest Abelian Subgroup              C1    NOp =  1
 Nuclear Repulsion Energy =         859.79830332 hartrees
 There are       51 alpha and       51 beta electrons
 Requested basis set is 6-31G(d)
 There are 80 shells and 234 basis functions

 Total QAlloc Memory Limit   4000 MB
 Mega-Array Size       188 MB
 MEM_STATIC part       192 MB
 A cutoff of  1.0D-08 yielded   1986 shell pairs
 There are     19020 function pairs
 Smallest overlap matrix eigenvalue = 4.46E-04

 Scale SEOQF with 1.000000e-02/1.000000e-01/1.000000e+00

 Standard Electronic Orientation quadrupole field applied
 Nucleus-field energy     =     0.0000000015 hartrees
 Guess from superposition of atomic densities
 Warning:  Energy on first SCF cycle will be non-variational
 SAD guess density has 102.000000 electrons

 -----------------------------------------------------------------------
  General SCF calculation program by
  Eric Jon Sundstrom, Paul Horn, Yuezhi Mao, Dmitri Zuev, Alec White,
  David Stuck, Shaama M.S., Shane Yost, Joonho Lee, David Small,
  Daniel Levine, Susi Lehtola, Hugh Burton, Evgeny Epifanovsky,
  Bang C. Huynh
 -----------------------------------------------------------------------
 Exchange:     0.2000 Hartree-Fock + 0.0800 Slater + 0.7200 B88
 Correlation:  0.1900 VWN1RPA + 0.8100 LYP
 Using SG-1 standard quadrature grid
 A restricted SCF calculation will be
 performed using DIIS
 SCF converges when DIIS error is below 1.0e-05
 ---------------------------------------
  Cycle       Energy         DIIS error
 ---------------------------------------
    1    -655.1604139321      5.37e-02  
    2    -651.7702785090      6.31e-03  
    3    -651.4913713162      9.60e-03  
    4    -651.9798781992      2.69e-03  
    5    -652.0214958196      5.38e-04  
    6    -652.0226134094      2.72e-04  
    7    -652.0230241066      6.33e-05  
    8    -652.0230461617      2.32e-05  
    9    -652.0230494893      7.35e-06  Convergence criterion met
 ---------------------------------------
 SCF time:   CPU 39.83s  wall 40.00s 
 SCF   energy in the final basis set =     -652.0230494893
 Total energy in the final basis set =     -652.0230494893
 
 --------------------------------------------------------------
 
                    Orbital Energies (a.u.)
 --------------------------------------------------------------
 
 Alpha MOs
 -- Occupied --
-19.2263 -19.1925 -19.1313 -10.3170 -10.2596 -10.2467 -10.2437 -10.2024
-10.2015 -10.2003 -10.1897 -10.1874 -10.1847 -10.1815  -1.1318  -1.1092
 -1.0168  -0.8242  -0.8215  -0.7831  -0.7724  -0.7243  -0.6814  -0.6300
 -0.6241  -0.5936  -0.5626  -0.5504  -0.5208  -0.4918  -0.4848  -0.4752
 -0.4658  -0.4573  -0.4436  -0.4370  -0.4202  -0.4137  -0.4083  -0.3972
 -0.3858  -0.3761  -0.3660  -0.3592  -0.3388  -0.3251  -0.3006  -0.2961
 -0.2776  -0.2699  -0.2021
 -- Virtual --
 -0.0526  -0.0237   0.0401   0.0967   0.0997   0.1076   0.1115   0.1207
  0.1328   0.1418   0.1459   0.1552   0.1650   0.1713   0.1842   0.1888
  0.1977   0.2084   0.2130   0.2289   0.2472   0.2793   0.2854   0.3143
  0.3291   0.3335   0.3792   0.3810   0.4224   0.4328   0.4648   0.4885
  0.5072   0.5088   0.5230   0.5283   0.5343   0.5388   0.5545   0.5603
  0.5679   0.5794   0.5954   0.5975   0.6216   0.6275   0.6337   0.6461
  0.6556   0.6568   0.6672   0.6779   0.6909   0.6976   0.7498   0.7614
  0.7790   0.8059   0.8110   0.8437   0.8513   0.8617   0.8634   0.8719
  0.8807   0.8942   0.8957   0.9059   0.9170   0.9336   0.9484   0.9576
  0.9598   0.9696   0.9887   0.9993   1.0202   1.0451   1.0552   1.0675
  1.0843   1.1092   1.1443   1.1658   1.1719   1.1955   1.2057   1.2192
  1.2527   1.2587   1.2945   1.3373   1.3455   1.3558   1.3810   1.3950
  1.4213   1.4409   1.4649   1.4720   1.4992   1.5110   1.5284   1.5371
  1.5961   1.6489   1.6636   1.6753   1.6995   1.7411   1.7489   1.7857
  1.7984   1.8170   1.8383   1.8580   1.8807   1.8886   1.9017   1.9257
  1.9421   1.9529   1.9651   1.9920   2.0138   2.0211   2.0303   2.0541
  2.0645   2.0892   2.1271   2.1416   2.1641   2.1803   2.1872   2.2037
  2.2248   2.2353   2.2522   2.2797   2.3203   2.3278   2.3849   2.3941
  2.4052   2.4165   2.4304   2.4917   2.5066   2.5280   2.5877   2.6061
  2.6270   2.6665   2.6721   2.6783   2.7186   2.7451   2.7627   2.7911
  2.8332   2.8841   2.9561   2.9937   3.0821   3.1528   3.2072   3.2552
  3.3991   3.9875   4.0217   4.0858   4.1166   4.1554   4.1950   4.2005
  4.2583   4.3558   4.4154   4.4331   4.5049   4.6842   4.7538
 --------------------------------------------------------------
 
          Ground-State Mulliken Net Atomic Charges

     Atom                 Charge (a.u.)
  ----------------------------------------
      1 C                    -0.343251
      2 C                    -0.122970
      3 C                     0.342638
      4 C                    -0.220123
      5 C                    -0.001653
      6 C                     0.570442
      7 O                    -0.489859
      8 O                    -0.463578
      9 C                    -0.047832
     10 C                    -0.467647
     11 C                     0.317226
     12 C                    -0.139419
     13 C                    -0.343201
     14 O                    -0.481290
     15 H                     0.150691
     16 H                     0.149353
     17 H                     0.145497
     18 H                     0.163137
     19 H                     0.171868
     20 H                     0.152703
     21 H                     0.181494
     22 H                     0.153065
     23 H                     0.156218
     24 H                     0.146220
     25 H                     0.175754
     26 H                     0.144519
  ----------------------------------------
  Sum of atomic charges =     0.000000

 -----------------------------------------------------------------
                    Cartesian Multipole Moments
 -----------------------------------------------------------------
    Charge (ESU x 10^10)
                 0.0000
    Dipole Moment (Debye)
         X      -0.5376      Y       1.2332      Z      -0.3979
       Tot       1.4029
    Quadrupole Moments (Debye-Ang)
        XX     -66.0394     XY      -2.7239     YY     -80.8914
        XZ       1.0942     YZ       1.6352     ZZ     -83.6481
    Octopole Moments (Debye-Ang^2)
       XXX     -17.1485    XXY     -11.1176    XYY       5.6107
       YYY      17.2832    XXZ      -4.5874    XYZ      -3.2237
       YYZ      -2.8943    XZZ     -11.7398    YZZ      -3.8723
       ZZZ      -2.5005
    Hexadecapole Moments (Debye-Ang^3)
      XXXX   -2976.4794   XXXY      26.2781   XXYY    -697.3904
      XYYY     -22.5366   YYYY   -1001.9550   XXXZ      31.0732
      XXYZ       4.9701   XYYZ       3.6470   YYYZ       6.6420
      XXZZ    -609.0673   XYZZ      19.4605   YYZZ    -210.0776
      XZZZ       6.5877   YZZZ      -2.2291   ZZZZ    -148.0816
 -----------------------------------------------------------------
Archival summary:
1\1\nia0005.scinet.local\SP\ProcedureUnspecified\6-31G*\31112\rhickman\MonFeb708:36:382022MonFeb708:36:382022\0\\#,ProcedureUnspecified,6-31G*,\\0,1\O\C,1,1.34049\O,2,1.20785,1,123.259\C,1,1.42785,2,116.7,3,1.25983,0\H,4,1.09218,1,104.95,2,-156.623,0\H,4,1.09493,1,108.85,2,-38.9217,0\C,2,1.46872,1,113.998,3,177.572,0\C,7,1.39257,2,134.031,1,19.3211,0\O,8,1.34962,7,108.741,2,-178.726,0\C,9,1.35297,8,109.163,7,-0.183752,0\C,10,1.37096,9,109.102,8,-0.200626,0\H,11,1.06977,10,128.055,9,-179.989,0\C,10,1.44004,9,118.125,8,179.865,0\H,13,1.08167,10,114.422,9,-0.350883,0\C,13,1.32953,10,124.691,9,179.601,0\H,15,1.07534,13,121.366,10,-179.962,0\H,15,1.0758,13,121.816,10,-0.0118745,0\C,8,1.44099,7,137.225,2,4.18099,0\H,18,1.08359,8,111.853,7,-177.995,0\C,18,1.32943,8,128.295,7,3.67484,0\H,20,1.07274,18,122.225,8,-1.65464,0\H,20,1.07627,18,120.549,8,178.814,0\C,4,1.52241,1,111.606,2,82.7411,0\H,23,1.08623,4,109.543,1,177.285,0\H,23,1.08723,4,109.854,1,-63.1441,0\H,23,1.08775,4,110.508,1,57.136,0\\\@

 Total job time:  40.17s(wall), 40.04s(cpu) 
 Mon Feb  7 08:36:38 2022

        *************************************************************
        *                                                           *
        *  Thank you very much for using Q-Chem.  Have a nice day.  *
        *                                                           *
        *************************************************************


