
Running Job 1 of 1 fragments/B008/conf-0/spe_input.inp
qchem fragments/B008/conf-0/spe_input.inp_257968.0 /gpfs/fs0/scratch/a/aspuru/rhickman/descriptor_computation/qchem257968/ 0
/scinet/niagara/software/commercial/qc52/exe/qcprog.exe_s fragments/B008/conf-0/spe_input.inp_257968.0 /gpfs/fs0/scratch/a/aspuru/rhickman/descriptor_computation/qchem257968/
                  Welcome to Q-Chem
     A Quantum Leap Into The Future Of Chemistry


 Q-Chem 5.2, Q-Chem, Inc., Pleasanton, CA (2019)

 License issued to: SRG Alan Aspuru-Guzik, University of Toronto

 Yihan Shao,  Zhengting Gan,  E. Epifanovsky,  A. T. B. Gilbert,  M. Wormit,  
 J. Kussmann,  A. W. Lange,  A. Behn,  Jia Deng,  Xintian Feng,  D. Ghosh,  
 M. Goldey,  P. R. Horn,  L. D. Jacobson,  I. Kaliman,  T. Kus,  A. Landau,  
 Jie Liu,  E. I. Proynov,  R. M. Richard,  R. P. Steele,  E. J. Sundstrom,  
 H. L. Woodcock III,  P. M. Zimmerman,  D. Zuev,  B. Albrecht,  E. Alguire,  
 S. A. Baeppler,  D. Barton,  Z. Benda,  Y. A. Bernard,  E. J. Berquist,  
 K. B. Bravaya,  H. Burton,  D. Casanova,  Chun-Min Chang,  Yunqing Chen,  
 A. Chien,  K. D. Closser,  M. P. Coons,  S. Coriani,  S. Dasgupta,  
 A. L. Dempwolff,  M. Diedenhofen,  Hainam Do,  R. G. Edgar,  Po-Tung Fang,  
 S. Faraji,  S. Fatehi,  Qingguo Feng,  K. D. Fenk,  J. Fosso-Tande,  
 J. Gayvert,  Qinghui Ge,  A. Ghysels,  G. Gidofalvi,  J. Gomes,  
 J. Gonthier,  A. Gunina,  D. Hait,  M. W. D. Hanson-Heine,  
 P. H. P. Harbach,  A. W. Hauser,  M. F. Herbst,  J. E. Herr,  
 E. G. Hohenstein,  Z. C. Holden,  Kerwin Hui,  B. C. Huynh,  T.-C. Jagau,  
 Hyunjun Ji,  B. Kaduk,  K. Khistyaev,  Jaehoon Kim,  P. Klunzinger,  K. Koh,  
 D. Kosenkov,  L. Koulias,  T. Kowalczyk,  C. M. Krauter,  A. Kunitsa,  
 Ka Un Lao,  A. Laurent,  K. V. Lawler,  Joonho Lee,  D. Lefrancois,  
 S. Lehtola,  D. S. Levine,  Yi-Pei Li,  You-Sheng Lin,  Fenglai Liu,  
 E. Livshits,  A. Luenser,  P. Manohar,  E. Mansoor,  S. F. Manzer,  
 Shan-Ping Mao,  Yuezhi Mao,  N. Mardirossian,  A. V. Marenich,  
 T. Markovich,  L. A. Martinez-Martinez,  S. A. Maurer,  N. J. Mayhall,  
 S. C. McKenzie,  J.-M. Mewes,  P. Morgante,  A. F. Morrison,  
 J. W. Mullinax,  K. Nanda,  T. S. Nguyen-Beck,  R. Olivares-Amaya,  
 J. A. Parkhill,  Zheng Pei,  T. M. Perrine,  F. Plasser,  P. Pokhilko,  
 S. Prager,  A. Prociuk,  E. Ramos,  D. R. Rehn,  F. Rob,  M. Scheurer,  
 M. Schneider,  N. Sergueev,  S. M. Sharada,  S. Sharma,  D. W. Small,  
 T. Stauch,  T. Stein,  Yu-Chuan Su,  A. J. W. Thom,  A. Tkatchenko,  
 T. Tsuchimochi,  N. M. Tubman,  L. Vogt,  M. L. Vidal,  O. Vydrov,  
 M. A. Watson,  J. Wenzel,  M. de Wergifosse,  T. A. Wesolowski,  A. White,  
 J. Witte,  A. Yamada,  Jun Yang,  K. Yao,  S. Yeganeh,  S. R. Yost,  
 Zhi-Qiang You,  A. Zech,  Igor Ying Zhang,  Xing Zhang,  Yan Zhao,  
 Ying Zhu,  B. R. Brooks,  G. K. L. Chan,  C. J. Cramer,  M. S. Gordon,  
 W. J. Hehre,  A. Klamt,  M. W. Schmidt,  C. D. Sherrill,  D. G. Truhlar,  
 A. Aspuru-Guzik,  R. Baer,  A. T. Bell,  N. A. Besley,  Jeng-Da Chai,  
 A. E. DePrince, III,  R. A. DiStasio Jr.,  A. Dreuw,  B. D. Dunietz,  
 T. R. Furlani,  Chao-Ping Hsu,  Yousung Jung,  Jing Kong,  D. S. Lambrecht,  
 WanZhen Liang,  C. Ochsenfeld,  V. A. Rassolov,  L. V. Slipchenko,  
 J. E. Subotnik,  T. Van Voorhis,  J. M. Herbert,  A. I. Krylov,  
 P. M. W. Gill,  M. Head-Gordon

 Contributors to earlier versions of Q-Chem not listed above: 
 R. D. Adamson,  B. Austin,  J. Baker,  G. J. O. Beran,  K. Brandhorst,  
 S. T. Brown,  E. F. C. Byrd,  A. K. Chakraborty,  C.-L. Cheng,  
 Siu Hung Chien,  D. M. Chipman,  D. L. Crittenden,  H. Dachsel,  
 R. J. Doerksen,  A. D. Dutoi,  L. Fusti-Molnar,  W. A. Goddard III,  
 A. Golubeva-Zadorozhnaya,  S. R. Gwaltney,  G. Hawkins,  A. Heyden,  
 S. Hirata,  G. Kedziora,  F. J. Keil,  C. Kelley,  Jihan Kim,  R. A. King,  
 R. Z. Khaliullin,  P. P. Korambath,  W. Kurlancheek,  A. M. Lee,  M. S. Lee,  
 S. V. Levchenko,  Ching Yeh Lin,  D. Liotard,  R. C. Lochan,  I. Lotan,  
 P. E. Maslen,  N. Nair,  D. P. O'Neill,  D. Neuhauser,  E. Neuscamman,  
 C. M. Oana,  R. Olson,  B. Peters,  R. Peverati,  P. A. Pieniazek,  
 Y. M. Rhee,  J. Ritchie,  M. A. Rohrdanz,  E. Rosta,  N. J. Russ,  
 H. F. Schaefer III,  N. E. Schultz,  N. Shenvi,  A. C. Simmonett,  A. Sodt,  
 D. Stuck,  K. S. Thanthiriwatte,  V. Vanovschi,  Tao Wang,  A. Warshel,  
 C. F. Williams,  Q. Wu,  X. Xu,  W. Zhang

 Please cite Q-Chem as follows:
 Y. Shao et al., Mol. Phys. 113, 184-215 (2015)
 DOI: 10.1080/00268976.2014.952696

 Q-Chem 5.2.1 for Intel X86 EM64T Linux

 Parts of Q-Chem use Armadillo 8.300.2 (Tropical Shenanigans).
 http://arma.sourceforge.net/

 Q-Chem begins on Mon Feb  7 08:51:39 2022  

Host: 
0

     Scratch files written to /gpfs/fs0/scratch/a/aspuru/rhickman/descriptor_computation/qchem257968//
 Jul1719 |scratch|qcdevops|jenkins|workspace|build_RNUM -1
Processing $rem in /scinet/niagara/software/commercial/qc52/config/preferences:
	 MEM_TOTAL  4000 
NAlpha2: 86
NElect   86
Mult     1

Checking the input file for inconsistencies... 	...done.

--------------------------------------------------------------
User input:
--------------------------------------------------------------
$molecule
0 1
C        -0.33999470220000    2.85923055140000   -0.53653598590000
C        -1.28617545390000    2.17451341370000    0.09202643940000
C        -1.41815194450000    0.71796831410000    0.10892371470000
C        -2.70051491040000    0.18060671460000    0.00596728690000
C        -2.90584704710000   -1.18325448200000   -0.05392439080000
C        -1.82083754880000   -2.04326271090000    0.00843810700000
C        -0.54506027520000   -1.53284760790000    0.14435095930000
C        -0.32083528890000   -0.15700599500000    0.19736632540000
C         1.01975790700000    0.36879150880000    0.43020100070000
C         2.16150104450000   -0.19223031120000    0.06760309590000
F         2.32953841440000   -1.31048332210000   -0.63169449240000
F         3.35779420690000    0.32924063030000    0.34242387390000
H        -0.32733230870000    3.93601034210000   -0.53048868820000
H         0.43717580540000    2.37627384400000   -1.10468189620000
H        -2.08393461000000    2.70796049090000    0.59504131700000
H        -3.54403200750000    0.85409898520000   -0.04802265420000
H        -3.90740768520000   -1.57614561760000   -0.14519202040000
H        -1.97040233190000   -3.11148422940000   -0.03433482560000
H         0.28959686620000   -2.21066569570000    0.22931032610000
H         1.09879217100000    1.30891150500000    0.95658622640000
$end

$rem
BASIS = 6-31G*
GUI = 2
METHOD = B3LYP
PRINT_ORBITALS false
MOLDEN_FORMAT false
--------------------------------------------------------------
 ----------------------------------------------------------------
             Standard Nuclear Orientation (Angstroms)
    I     Atom           X                Y                Z
 ----------------------------------------------------------------
    1      C      -0.1951165051    -2.8375238273     0.5143564225
    2      C      -1.1538764686    -2.1662469916    -0.1096251783
    3      C      -1.3141884091    -0.7124587072    -0.1147870763
    4      C      -2.6068712935    -0.2010308196    -0.0088400745
    5      C      -2.8387901742     1.1580380444     0.0619491798
    6      C      -1.7706840108     2.0394932963     0.0077762252
    7      C      -0.4850801044     1.5551470402    -0.1309134741
    8      C      -0.2340449163     0.1844121361    -0.1949038974
    9      C       1.1167517482    -0.3132586291    -0.4305674260
   10      C       2.2470131956     0.2669079969    -0.0621710882
   11      F       2.3925873357     1.3824676819     0.6464036997
   12      F       3.4534917509    -0.2289040141    -0.3399401986
   13      H      -0.1614733026    -3.9137674330     0.4995422474
   14      H       0.5719727288    -2.3441846485     1.0872626245
   15      H      -1.9406269255    -2.7109986090    -0.6178365677
   16      H      -3.4371569319    -0.8912405406     0.0387429599
   17      H      -3.8478988032     1.5305914803     0.1553335927
   18      H      -1.9410707399     3.1042143485     0.0590968279
   19      H       0.3362915828     2.2497622285    -0.2094392001
   20      H       1.2145722400    -1.2473270697    -0.9645156703
 ----------------------------------------------------------------
 Molecular Point Group                 C1    NOp =  1
 Largest Abelian Subgroup              C1    NOp =  1
 Nuclear Repulsion Energy =         649.88876463 hartrees
 There are       43 alpha and       43 beta electrons
 Requested basis set is 6-31G(d)
 There are 64 shells and 196 basis functions

 Total QAlloc Memory Limit   4000 MB
 Mega-Array Size       188 MB
 MEM_STATIC part       192 MB
 A cutoff of  1.0D-08 yielded   1514 shell pairs
 There are     15056 function pairs
 Smallest overlap matrix eigenvalue = 3.69E-04

 Scale SEOQF with 1.000000e-01/1.000000e-01/1.000000e+00

 Standard Electronic Orientation quadrupole field applied
 Nucleus-field energy     =     0.0000000151 hartrees
 Guess from superposition of atomic densities
 Warning:  Energy on first SCF cycle will be non-variational
 SAD guess density has 86.000000 electrons

 -----------------------------------------------------------------------
  General SCF calculation program by
  Eric Jon Sundstrom, Paul Horn, Yuezhi Mao, Dmitri Zuev, Alec White,
  David Stuck, Shaama M.S., Shane Yost, Joonho Lee, David Small,
  Daniel Levine, Susi Lehtola, Hugh Burton, Evgeny Epifanovsky,
  Bang C. Huynh
 -----------------------------------------------------------------------
 Exchange:     0.2000 Hartree-Fock + 0.0800 Slater + 0.7200 B88
 Correlation:  0.1900 VWN1RPA + 0.8100 LYP
 Using SG-1 standard quadrature grid
 A restricted SCF calculation will be
 performed using DIIS
 SCF converges when DIIS error is below 1.0e-05
 ---------------------------------------
  Cycle       Energy         DIIS error
 ---------------------------------------
    1    -588.1905729298      5.67e-02  
    2    -585.3018399565      6.42e-03  
    3    -585.1355730445      8.70e-03  
    4    -585.4976877950      1.54e-03  
    5    -585.5082216782      5.18e-04  
    6    -585.5090884743      2.82e-04  
    7    -585.5094930211      5.46e-05  
    8    -585.5095072884      1.86e-05  
    9    -585.5095088738      4.79e-06  Convergence criterion met
 ---------------------------------------
 SCF time:   CPU 26.96s  wall 27.00s 
 SCF   energy in the final basis set =     -585.5095088738
 Total energy in the final basis set =     -585.5095088738
 
 --------------------------------------------------------------
 
                    Orbital Energies (a.u.)
 --------------------------------------------------------------
 
 Alpha MOs
 -- Occupied --
-24.7375 -24.7295 -10.3507 -10.2055 -10.1985 -10.1968 -10.1946 -10.1891
-10.1887 -10.1880 -10.1875 -10.1841  -1.2791  -1.2188  -0.8724  -0.8052
 -0.7944  -0.7392  -0.7279  -0.6456  -0.6192  -0.6082  -0.5756  -0.5561
 -0.5286  -0.5136  -0.4959  -0.4810  -0.4527  -0.4454  -0.4365  -0.4299
 -0.4285  -0.4163  -0.4043  -0.3800  -0.3729  -0.3505  -0.3423  -0.2948
 -0.2909  -0.2403  -0.2176
 -- Virtual --
 -0.0306  -0.0147   0.0399   0.0620   0.0972   0.1167   0.1244   0.1376
  0.1548   0.1627   0.1791   0.1805   0.1886   0.2056   0.2142   0.2814
  0.3010   0.3221   0.3246   0.3477   0.3584   0.4008   0.4247   0.4864
  0.4934   0.5143   0.5153   0.5334   0.5421   0.5509   0.5670   0.5761
  0.5889   0.5947   0.6021   0.6102   0.6147   0.6183   0.6200   0.6392
  0.6653   0.6709   0.6966   0.7061   0.7394   0.7798   0.7911   0.8307
  0.8387   0.8413   0.8536   0.8668   0.8741   0.9010   0.9305   0.9463
  0.9515   0.9660   0.9864   0.9963   1.0409   1.0497   1.0890   1.1000
  1.1184   1.1345   1.1410   1.1878   1.2000   1.2109   1.2256   1.2399
  1.2784   1.3052   1.3555   1.3613   1.4114   1.4301   1.4374   1.4484
  1.4632   1.4837   1.5017   1.5098   1.5322   1.5559   1.6042   1.6611
  1.6900   1.7314   1.7637   1.7781   1.8058   1.8229   1.8401   1.8456
  1.8775   1.8867   1.9120   1.9257   1.9689   1.9762   1.9984   2.0007
  2.0191   2.0310   2.0422   2.0663   2.1307   2.1379   2.1478   2.1642
  2.2092   2.2222   2.2417   2.2581   2.2958   2.3176   2.3374   2.3829
  2.4101   2.4764   2.5231   2.5402   2.5858   2.6104   2.6336   2.6699
  2.6877   2.7209   2.7313   2.7716   2.8030   2.8720   2.8799   2.9857
  3.0190   3.0940   3.1722   3.3036   3.4688   4.0955   4.1078   4.1177
  4.1236   4.1630   4.2448   4.2952   4.4135   4.4406   4.7291   4.8068
  5.2367
 --------------------------------------------------------------
 
          Ground-State Mulliken Net Atomic Charges

     Atom                 Charge (a.u.)
  ----------------------------------------
      1 C                    -0.337838
      2 C                    -0.141237
      3 C                     0.100690
      4 C                    -0.187993
      5 C                    -0.124735
      6 C                    -0.129526
      7 C                    -0.185160
      8 C                     0.127346
      9 C                    -0.324410
     10 C                     0.547590
     11 F                    -0.239397
     12 F                    -0.250689
     13 H                     0.145624
     14 H                     0.159522
     15 H                     0.136898
     16 H                     0.128806
     17 H                     0.129943
     18 H                     0.131298
     19 H                     0.136799
     20 H                     0.176470
  ----------------------------------------
  Sum of atomic charges =     0.000000

 -----------------------------------------------------------------
                    Cartesian Multipole Moments
 -----------------------------------------------------------------
    Charge (ESU x 10^10)
                 0.0000
    Dipole Moment (Debye)
         X      -1.2831      Y      -0.4576      Z      -0.2539
       Tot       1.3857
    Quadrupole Moments (Debye-Ang)
        XX     -66.1918     XY      -0.8414     YY     -61.3137
        XZ       0.3019     YZ       0.1566     ZZ     -69.7114
    Octopole Moments (Debye-Ang^2)
       XXX      12.7334    XXY       3.7944    XYY       8.3267
       YYY       7.1958    XXZ       1.3494    XYZ      -4.5951
       YYZ      -0.2511    XZZ      21.6801    YZZ       1.2963
       ZZZ       3.1031
    Hexadecapole Moments (Debye-Ang^3)
      XXXX   -1541.9647   XXXY      12.1472   XXYY    -405.2134
      XYYY       8.3598   YYYY    -897.7376   XXXZ       3.0040
      XXYZ       6.3457   XYYZ       4.6026   YYYZ       7.7535
      XXZZ    -290.5169   XYZZ       7.5052   YYZZ    -190.8532
      XZZZ       5.1093   YZZZ      10.9832   ZZZZ    -111.6838
 -----------------------------------------------------------------
Archival summary:
1\1\nia0005.scinet.local\SP\ProcedureUnspecified\6-31G*\2108\rhickman\MonFeb708:52:062022MonFeb708:52:062022\0\\#,ProcedureUnspecified,6-31G*,\\0,1\F\C,1,1.32957\C,2,1.3228,1,127.587\H,3,1.08035,2,116.071,1,-177.04,0\F,2,1.33363,1,108.898,3,-178.57,0\C,3,1.45872,2,126.627,1,3.33139,0\C,6,1.395,3,120.616,2,30.7081,0\H,7,1.07857,6,119.501,3,-2.95114,0\C,7,1.3808,6,121.12,3,175.898,0\H,9,1.07949,7,119.848,6,179.756,0\C,9,1.38591,7,119.893,6,-1.135,0\H,11,1.07973,9,120.279,7,-179.076,0\C,11,1.38053,9,119.647,7,0.698619,0\H,13,1.08075,11,119.828,9,179.655,0\C,13,1.39421,11,121.384,9,0.944486,0\C,15,1.46261,13,117.773,11,176.683,0\H,16,1.08352,15,114.739,13,36.2364,0\C,16,1.32634,15,125.729,13,-139.727,0\H,18,1.07687,16,121.462,15,177.905,0\H,18,1.07705,16,122.226,15,-0.12864,0\\\@

 Total job time:  27.23s(wall), 27.12s(cpu) 
 Mon Feb  7 08:52:06 2022

        *************************************************************
        *                                                           *
        *  Thank you very much for using Q-Chem.  Have a nice day.  *
        *                                                           *
        *************************************************************


