27
 energy: -49.336921713391 gnorm: 0.000050736320 xtb: 6.5.0 (unknown)
C           -3.64262279770000        1.32757286610000       -0.76941332040000
C           -2.56771552570000        1.36993782640000        0.00260057680000
C           -1.53959721970000        0.31061068660000       -0.00839952120000
C           -2.01038672350000       -0.97398382210000        0.26126254220000
C           -1.16607069630000       -2.06558343460000        0.25830947810000
Cl          -1.79355773970000       -3.64301974040000        0.58673711160000
C            0.17884821510000       -1.90041728340000       -0.01138346290000
C            0.68088766620000       -0.63076178390000       -0.26243221900000
C            2.11191928700000       -0.51624556270000       -0.54627202730000
C            2.93654984240000        0.43250552600000       -0.13771594870000
F            2.66529827620000        1.46722498570000        0.64203964320000
F            4.23582305400000        0.44555672140000       -0.43337243950000
C           -0.17436214480000        0.49371893850000       -0.28354191260000
O            0.43478686110000        1.62837484560000       -0.70566664800000
C           -0.11476495170000        2.91709288550000       -0.51903459030000
C            0.01459419340000        3.39588079760000        0.92307255740000
H           -4.40972321760000        2.08090317780000       -0.71546434880000
H           -3.78174986010000        0.54880576190000       -1.50071281540000
H           -2.45830623020000        2.16065360280000        0.73289501310000
H           -3.06000351490000       -1.10485105970000        0.47329034180000
H            0.84373049100000       -2.74939668810000       -0.01256484830000
H            2.55868689820000       -1.31526685010000       -1.11927465480000
H           -1.15511505050000        2.94801792620000       -0.86026734750000
H            0.48602349190000        3.55425729230000       -1.17433190700000
H           -0.49012187430000        2.71529682840000        1.60504663040000
H           -0.41966368220000        4.38701960340000        1.02142189560000
H            1.06302631010000        3.43640293230000        1.20439774750000
