
Running Job 1 of 1 tidas/B050/conf-0/spe_input.inp
qchem tidas/B050/conf-0/spe_input.inp_239625.0 /home/a/aspuru/seifridm/acdc_laser/descriptor_computation/qchem239625/ 0
/gpfs/fs1/scinet/niagara/software/commercial/qc54/exe/qcprog.exe_s tidas/B050/conf-0/spe_input.inp_239625.0 /home/a/aspuru/seifridm/acdc_laser/descriptor_computation/qchem239625/
                  Welcome to Q-Chem
     A Quantum Leap Into The Future Of Chemistry


 Q-Chem 5.4, Q-Chem, Inc., Pleasanton, CA (2021)

 License issued to: SRG Alan Aspuru-Guzik, University of Toronto

 E. Epifanovsky,  A. T. B. Gilbert,  Xintian Feng,  Joonho Lee,  Yuezhi Mao,  
 N. Mardirossian,  P. Pokhilko,  A. White,  M. Wormit,  M. P. Coons,  
 A. L. Dempwolff,  Zhengting Gan,  D. Hait,  P. R. Horn,  L. D. Jacobson,  
 I. Kaliman,  J. Kussmann,  A. W. Lange,  Ka Un Lao,  D. S. Levine,  Jie Liu,  
 S. C. McKenzie,  A. F. Morrison,  K. Nanda,  F. Plasser,  D. R. Rehn,  
 M. L. Vidal,  Zhi-Qiang You,  Ying Zhu,  B. Alam,  B. Albrecht,  
 A. Aldossary,  E. Alguire,  J. H. Andersen,  D. Barton,  K. Begam,  A. Behn,  
 Y. A. Bernard,  E. J. Berquist,  H. Burton,  A. Carreras,  K. Carter-Fenk,  
 Romit Chakraborty,  A. D. Chien,  K. D. Closser,  V. Cofer-Shabica,  
 S. Dasgupta,  Jia Deng,  M. de Wergifosse,  M. Diedenhofen,  Hainam Do,  
 S. Ehlert,  Po-Tung Fang,  S. Fatehi,  Qingguo Feng,  T. Friedhoff,  
 J. Gayvert,  Qinghui Ge,  G. Gidofalvi,  M. Goldey,  J. Gomes,  
 C. Gonzalez-Espinoza,  S. Gulania,  A. Gunina,  M. W. D. Hanson-Heine,  
 P. H. P. Harbach,  A. W. Hauser,  M. F. Herbst,  M. Hernandez Vera,  
 M. Hodecker,  Z. C. Holden,  S. Houck,  Xunkun Huang,  Kerwin Hui,  
 B. C. Huynh,  M. Ivanov,  Hyunjun Ji,  Hanjie Jiang,  B. Kaduk,  S. Kaehler,  
 K. Khistyaev,  Jaehoon Kim,  P. Klunzinger,  Z. Koczor-Benda,  
 Joong Hoon Koh,  D. Kosenkov,  L. Koulias,  T. Kowalczyk,  C. M. Krauter,  
 K. Kue,  A. Kunitsa,  T. Kus,  A. Landau,  K. V. Lawler,  D. Lefrancois,  
 S. Lehtola,  Rain Li,  Yi-Pei Li,  Jiashu Liang,  M. Liebenthal,  
 Hung-Hsuan Lin,  You-Sheng Lin,  Fenglai Liu,  Kuan-Yu Liu,  
 M. Loipersberger,  A. Luenser,  A. Manjanath,  P. Manohar,  E. Mansoor,  
 S. F. Manzer,  Shan-Ping Mao,  A. V. Marenich,  T. Markovich,  S. Mason,  
 S. A. Maurer,  P. F. McLaughlin,  M. F. S. J. Menger,  J.-M. Mewes,  
 S. A. Mewes,  P. Morgante,  J. W. Mullinax,  K. J. Oosterbaan,  G. Paran,  
 Alexander C. Paul,  Suranjan K. Paul,  F. Pavosevic,  Zheng Pei,  S. Prager,  
 E. I. Proynov,  E. Ramos,  B. Rana,  A. E. Rask,  A. Rettig,  R. M. Richard,  
 F. Rob,  E. Rossomme,  T. Scheele,  M. Scheurer,  M. Schneider,  
 N. Sergueev,  S. M. Sharada,  W. Skomorowski,  D. W. Small,  C. J. Stein,  
 Yu-Chuan Su,  E. J. Sundstrom,  Zhen Tao,  J. Thirman,  T. Tsuchimochi,  
 N. M. Tubman,  S. P. Veccham,  O. Vydrov,  J. Wenzel,  J. Witte,  A. Yamada,  
 Kun Yao,  S. Yeganeh,  S. R. Yost,  A. Zech,  Igor Ying Zhang,  Xing Zhang,  
 Yu Zhang,  D. Zuev,  A. Aspuru-Guzik,  A. T. Bell,  N. A. Besley,  
 K. B. Bravaya,  B. R. Brooks,  D. Casanova,  Jeng-Da Chai,  S. Coriani,  
 C. J. Cramer,  A. E. DePrince, III,  R. A. DiStasio Jr.,  A. Dreuw,  
 B. D. Dunietz,  T. R. Furlani,  W. A. Goddard III,  S. Grimme,  
 S. Hammes-Schiffer,  T. Head-Gordon,  W. J. Hehre,  Chao-Ping Hsu,  
 T.-C. Jagau,  Yousung Jung,  A. Klamt,  Jing Kong,  D. S. Lambrecht,  
 WanZhen Liang,  N. J. Mayhall,  C. W. McCurdy,  J. B. Neaton,  T. Neudecker,  
 C. Ochsenfeld,  J. A. Parkhill,  R. Peverati,  V. A. Rassolov,  Yihan Shao,  
 L. V. Slipchenko,  R. P. Steele,  J. E. Subotnik,  A. J. W. Thom,  
 A. Tkatchenko,  D. G. Truhlar,  T. Van Voorhis,  T. A. Wesolowski,  
 K. B. Whaley,  H. L. Woodcock III,  P. M. Zimmerman,  S. Faraji,  
 P. M. W. Gill,  M. Head-Gordon,  J. M. Herbert,  A. I. Krylov

 Additional authors since Version 5.4.0: 
 Chandrima Chakravarty,  L. Cunha,  R. Kang,  Yongbin Kim,  S. Kotaru,  
 Shaozhi Li,  Xiangyuan Li,  F. Matz,  A. Molle,  V. Parravicini,  
 Haisheng Ren,  Hengyuan Shen,  Yingli Su,  Hung-Yi Tsai,  C. Utku,  
 Fang Wang,  Jeff Yang,  F. Zeller

 Contributors to earlier versions of Q-Chem not listed above: 
 R. D. Adamson,  B. Austin,  R. Baer,  J. Baker,  G. J. O. Beran,  
 K. Brandhorst,  S. T. Brown,  E. F. C. Byrd,  Arup K. Chakraborty,  
 G. K. L. Chan,  Chun-Min Chang,  Yunqing Chen,  C.-L. Cheng,  
 Siu Hung Chien,  D. M. Chipman,  D. L. Crittenden,  H. Dachsel,  
 R. J. Doerksen,  A. D. Dutoi,  R. G. Edgar,  J. Fosso-Tande,  
 L. Fusti-Molnar,  D. Ghosh,  A. Ghysels,  A. Golubeva-Zadorozhnaya,  
 J. Gonthier,  M. S. Gordon,  S. R. Gwaltney,  G. Hawkins,  J. E. Herr,  
 A. Heyden,  S. Hirata,  E. G. Hohenstein,  G. Kedziora,  F. J. Keil,  
 C. Kelley,  Jihan Kim,  R. A. King,  R. Z. Khaliullin,  P. P. Korambath,  
 W. Kurlancheek,  A. Laurent,  A. M. Lee,  M. S. Lee,  S. V. Levchenko,  
 Ching Yeh Lin,  D. Liotard,  E. Livshits,  R. C. Lochan,  I. Lotan,  
 L. A. Martinez-Martinez,  P. E. Maslen,  N. Nair,  D. P. O'Neill,  
 D. Neuhauser,  E. Neuscamman,  C. M. Oana,  R. Olivares-Amaya,  R. Olson,  
 T. M. Perrine,  B. Peters,  P. A. Pieniazek,  A. Prociuk,  Y. M. Rhee,  
 J. Ritchie,  M. A. Rohrdanz,  E. Rosta,  N. J. Russ,  H. F. Schaefer III,  
 M. W. Schmidt,  N. E. Schultz,  S. Sharma,  N. Shenvi,  C. D. Sherrill,  
 A. C. Simmonett,  A. Sodt,  T. Stein,  D. Stuck,  K. S. Thanthiriwatte,  
 V. Vanovschi,  L. Vogt,  Tao Wang,  A. Warshel,  M. A. Watson,  
 C. F. Williams,  Q. Wu,  X. Xu,  Jun Yang,  W. Zhang,  Yan Zhao

   Please cite Q-Chem as follows:
  "Software for the frontiers of quantum chemistry:
   An overview of developments in the Q-Chem 5 package"
   J. Chem. Phys. 155, 084801 (2021)
   https://doi.org/10.1063/5.0055522 (open access)

 Q-Chem 5.4.2 for Intel X86 EM64T Linux

 Parts of Q-Chem use Armadillo 9.900.5 (Nocturnal Misbehaviour).
 http://arma.sourceforge.net/

 Q-Chem begins on Fri Aug 12 12:43:23 2022  

 Host: 
0

     Scratch files written to /home/a/aspuru/seifridm/acdc_laser/descriptor_computation/qchem239625//
 Dec1321 |scratch|qcdevops|jenkins|workspace|build_RNUM 6959   
 Processing $rem in /gpfs/fs1/scinet/niagara/software/commercial/qc54/config/preferences:
 Processing $rem in /home/a/aspuru/seifridm/.qchemrc:

 Checking the input file for inconsistencies... 	...done.

--------------------------------------------------------------
User input:
--------------------------------------------------------------
$molecule
0 1
C           -1.60965019790000        3.89618166310000       -0.02581178150000
C           -0.46869747460000        3.21810210000000       -0.03928810140000
C           -0.31469967750000        1.76712141440000        0.00965960650000
C           -1.40276097080000        0.89604890930000       -0.02403362820000
C           -1.22833668410000       -0.48571912400000        0.02618272340000
C           -2.33295731870000       -1.43368632020000       -0.00516261300000
C           -3.63246401970000       -1.18510170850000       -0.06588571800000
F           -4.23868519640000       -0.00449778830000       -0.11345485290000
F           -4.55656819660000       -2.14204555290000       -0.08816234490000
C            0.06616640730000       -0.99668934650000        0.10941358160000
C            1.16068715430000       -0.14202782100000        0.14202991010000
C            2.51514296940000       -0.74765103280000        0.22848195500000
O            2.71837490720000       -1.93728499780000        0.25345384170000
O            3.48298965720000        0.17470718980000        0.28775870850000
C            4.82611230810000       -0.30337884080000        0.35782779870000
C            5.36973228030000       -0.64065308710000       -1.02322967250000
C            0.97110976410000        1.23314243440000        0.09070340750000
H           -1.61786511730000        4.97190242510000       -0.06282308200000
H           -2.57436538730000        3.42154578030000        0.02535075980000
H            0.46586068950000        3.76363270750000       -0.08244611010000
H           -2.39528826990000        1.30599599370000       -0.09566943920000
H           -2.06601915500000       -2.48003126660000        0.02717828930000
H            0.24215361920000       -2.06104177150000        0.14919778980000
H            4.85387574250000       -1.18899693570000        1.00130898020000
H            5.39240373750000        0.50960819500000        0.81724777540000
H            4.79976679060000       -1.45924216100000       -1.45578074450000
H            6.41030994540000       -0.94102315050000       -0.94138099860000
H            5.29899887530000        0.22466742270000       -1.67809475980000
H            1.82902371030000        1.88711802190000        0.11621981860000
$end

$rem
BASIS = 6-31G*
GUI = 2
METHOD = B3LYP
PRINT_ORBITALS false
MOLDEN_FORMAT false
$end
--------------------------------------------------------------
 ----------------------------------------------------------------
             Standard Nuclear Orientation (Angstroms)
    I     Atom           X                Y                Z
 ----------------------------------------------------------------
    1      C       1.8105335512    -3.8175624289    -0.0313598521
    2      C       0.6550911350    -3.1643730003    -0.0379184516
    3      C       0.4699406681    -1.7171194340     0.0133901145
    4      C       1.5386604593    -0.8226248304    -0.0253052772
    5      C       1.3345961217     0.5549882350     0.0273103076
    6      C       2.4182167961     1.5267163333    -0.0090465151
    7      C       3.7224566189     1.3064282660    -0.0770973992
    8      F       4.3538629662     0.1392934865    -0.1292029180
    9      F       4.6254608545     2.2832077266    -0.1033944509
   10      C       0.0297928233     1.0376876208     0.1181169880
   11      C      -1.0457464902     0.1594610531     0.1557878585
   12      C      -2.4125220907     0.7354879772     0.2502411606
   13      O      -2.6413590967     1.9204110467     0.2775675319
   14      O      -3.3598057198    -0.2076971105     0.3138120005
   15      C      -4.7125753343     0.2410837266     0.3916870007
   16      C      -5.2709126192     0.5677768623    -0.9860384442
   17      C      -0.8266819437    -1.2112261407     0.1019866569
   18      H       1.8418668194    -4.8928170904    -0.0695451660
   19      H       2.7649964632    -3.3221650547     0.0150536664
   20      H      -0.2676415293    -3.7300018661    -0.0765660404
   21      H       2.5394364975    -1.2108843980    -0.1027686261
   22      H       2.1288363459     2.5669957285     0.0258447306
   23      H      -0.1690091846     2.0979356944     0.1599756864
   24      H      -4.7560192176     1.1252912321     1.0362395319
   25      H      -5.2585904815    -0.5844207426     0.8533258733
   26      H      -4.7211990777     1.3989366793    -1.4208229221
   27      H      -6.3172955305     0.8454336757    -0.8982161545
   28      H      -5.1850117326    -0.2951953728    -1.6421870866
   29      H      -1.6700633995    -1.8836763313     0.1314816836
 ----------------------------------------------------------------
 Molecular Point Group                 C1    NOp =  1
 Largest Abelian Subgroup              C1    NOp =  1
 Nuclear Repulsion Energy =        1132.07704416 hartrees
 There are       62 alpha and       62 beta electrons
 Requested basis set is 6-31G(d)
 There are 92 shells and 279 basis functions

 Total QAlloc Memory Limit   8000 MB
 Mega-Array Size       188 MB
 MEM_STATIC part       192 MB
 A cutoff of  1.0D-08 yielded   2292 shell pairs
 There are     22847 function pairs
 Smallest overlap matrix eigenvalue = 3.54E-04

 Scale SEOQF with 1.000000e-02/1.000000e-01/1.000000e-01

 Standard Electronic Orientation quadrupole field applied
 Nucleus-field energy     =     0.0000000284 hartrees
 Guess from superposition of atomic densities
 Warning:  Energy on first SCF cycle will be non-variational
 SAD guess density has 124.000000 electrons

 -----------------------------------------------------------------------
  General SCF calculation program by
  Eric Jon Sundstrom, Paul Horn, Yuezhi Mao, Dmitri Zuev, Alec White,
  David Stuck, Shaama M.S., Shane Yost, Joonho Lee, David Small,
  Daniel Levine, Susi Lehtola, Hugh Burton, Evgeny Epifanovsky,
  Bang C. Huynh
 -----------------------------------------------------------------------
 Exchange:     0.2000 Hartree-Fock + 0.0800 Slater + 0.7200 B88
 Correlation:  0.1900 VWN1RPA + 0.8100 LYP
 Using SG-1 standard quadrature grid
 A restricted SCF calculation will be
 performed using DIIS
 SCF converges when DIIS error is below 1.0e-05
 ---------------------------------------
  Cycle       Energy         DIIS error
 ---------------------------------------
    1    -856.4357558690      4.80e-02  
    2    -852.4020457081      5.84e-03  
    3    -852.0419917725      8.89e-03  
    4    -852.6805649389      1.97e-03  
    5    -852.7101182033      6.46e-04  
    6    -852.7129883788      2.46e-04  
    7    -852.7135017169      6.44e-05  
    8    -852.7135362920      2.40e-05  
    9    -852.7135432788      6.29e-06  Convergence criterion met
 ---------------------------------------
 SCF time:   CPU 79.54s  wall 88.00s 
 SCF   energy in the final basis set =     -852.7135432788
 Total energy in the final basis set =     -852.7135432788
 
 --------------------------------------------------------------
 
                    Orbital Energies (a.u.)
 --------------------------------------------------------------
 
 Alpha MOs
 -- Occupied --
-24.7494 -24.7384 -19.1923 -19.1332 -10.3617 -10.3147 -10.2436 -10.2144
-10.2071 -10.2045 -10.2045 -10.1979 -10.1974 -10.1972 -10.1957 -10.1857
-10.1808  -1.2904  -1.2292  -1.1094  -1.0181  -0.8810  -0.8212  -0.8032
 -0.7751  -0.7484  -0.7366  -0.6755  -0.6541  -0.6328  -0.6183  -0.5892
 -0.5714  -0.5510  -0.5410  -0.5237  -0.5085  -0.4981  -0.4881  -0.4721
 -0.4676  -0.4549  -0.4454  -0.4425  -0.4415  -0.4327  -0.4186  -0.4137
 -0.4087  -0.3953  -0.3811  -0.3801  -0.3759  -0.3594  -0.3521  -0.3403
 -0.3247  -0.3003  -0.2907  -0.2749  -0.2392  -0.2260
 -- Virtual --
 -0.0526  -0.0363   0.0033   0.0771   0.0870   0.0906   0.1070   0.1134
  0.1155   0.1314   0.1453   0.1504   0.1547   0.1601   0.1750   0.1801
  0.1843   0.1886   0.1907   0.2063   0.2275   0.2348   0.2689   0.2822
  0.2839   0.3030   0.3145   0.3398   0.3519   0.3810   0.4208   0.4364
  0.4521   0.4825   0.4905   0.4967   0.5125   0.5178   0.5217   0.5320
  0.5342   0.5447   0.5468   0.5525   0.5599   0.5706   0.5763   0.5825
  0.5852   0.5929   0.6068   0.6204   0.6235   0.6334   0.6386   0.6579
  0.6778   0.6801   0.6857   0.7086   0.7394   0.7620   0.7711   0.7776
  0.7907   0.8018   0.8169   0.8196   0.8238   0.8493   0.8610   0.8759
  0.8802   0.8926   0.8936   0.8986   0.9111   0.9315   0.9500   0.9557
  0.9638   0.9900   1.0040   1.0119   1.0142   1.0441   1.0590   1.0738
  1.0984   1.1028   1.1201   1.1559   1.1613   1.1682   1.1776   1.1976
  1.2112   1.2261   1.2468   1.2552   1.2745   1.3010   1.3081   1.3188
  1.3364   1.3646   1.3717   1.3877   1.3993   1.4064   1.4370   1.4494
  1.4564   1.4649   1.4779   1.4900   1.5004   1.5101   1.5393   1.5728
  1.6062   1.6582   1.6622   1.6711   1.6893   1.7195   1.7437   1.7503
  1.7773   1.7787   1.7852   1.7979   1.8210   1.8253   1.8326   1.8668
  1.8674   1.8895   1.8911   1.8955   1.9319   1.9356   1.9456   1.9642
  1.9765   1.9786   1.9866   2.0156   2.0217   2.0248   2.0564   2.0636
  2.0821   2.1166   2.1216   2.1293   2.1533   2.1621   2.1816   2.2168
  2.2225   2.2325   2.2494   2.2685   2.2908   2.3116   2.3183   2.3353
  2.3549   2.3957   2.4096   2.4664   2.4897   2.5150   2.5202   2.5216
  2.5239   2.5805   2.5917   2.6356   2.6399   2.6593   2.6761   2.6888
  2.7520   2.7611   2.8141   2.8487   2.8629   2.8766   2.9194   2.9654
  2.9927   3.0559   3.0915   3.1526   3.1698   3.2204   3.3371   3.4860
  3.9857   4.0744   4.0865   4.1097   4.1262   4.1540   4.1881   4.2331
  4.2607   4.3174   4.4355   4.4619   4.4988   4.5843   4.7438   4.8297
  5.3089
 --------------------------------------------------------------
 
          Ground-State Mulliken Net Atomic Charges

     Atom                 Charge (a.u.)
  ----------------------------------------
      1 C                    -0.353767
      2 C                    -0.110091
      3 C                     0.177066
      4 C                    -0.248035
      5 C                     0.195487
      6 C                    -0.296866
      7 C                     0.547111
      8 F                    -0.233460
      9 F                    -0.245380
     10 C                    -0.233240
     11 C                     0.050217
     12 C                     0.603957
     13 O                    -0.492955
     14 O                    -0.468235
     15 C                    -0.045964
     16 C                    -0.464465
     17 C                    -0.238501
     18 H                     0.147781
     19 H                     0.148765
     20 H                     0.130651
     21 H                     0.141437
     22 H                     0.166446
     23 H                     0.160276
     24 H                     0.169221
     25 H                     0.151581
     26 H                     0.179257
     27 H                     0.152172
     28 H                     0.156764
     29 H                     0.152772
  ----------------------------------------
  Sum of atomic charges =     0.000000

 -----------------------------------------------------------------
                    Cartesian Multipole Moments
 -----------------------------------------------------------------
    Charge (ESU x 10^10)
                 0.0000
    Dipole Moment (Debye)
         X      -1.0201      Y      -1.6631      Z      -0.1251
       Tot       1.9550
    Quadrupole Moments (Debye-Ang)
        XX     -87.3894     XY       2.9346     YY     -94.7385
        XZ       0.1216     YZ      -0.2401     ZZ     -97.9560
    Octopole Moments (Debye-Ang^2)
       XXX     -55.7568    XXY     -12.9646    XYY      28.1273
       YYY      -2.2514    XXZ       3.4256    XYZ       1.8353
       YYZ      -2.0605    XZZ       8.8698    YZZ      14.6333
       ZZZ       0.5413
    Hexadecapole Moments (Debye-Ang^3)
      XXXX   -4808.3085   XXXY      -0.3469   XXYY   -1182.9222
      XYYY      80.3182   YYYY   -1661.4326   XXXZ     -32.3913
      XXYZ      -2.8338   XYYZ       0.0618   YYYZ       0.9799
      XXZZ    -874.1964   XYZZ      28.9529   YYZZ    -344.0080
      XZZZ     -18.3471   YZZZ       0.1500   ZZZZ    -170.5234
 -----------------------------------------------------------------
 Total job time:  90.70s(wall), 80.15s(cpu) 
 Fri Aug 12 12:44:53 2022

        *************************************************************
        *                                                           *
        *  Thank you very much for using Q-Chem.  Have a nice day.  *
        *                                                           *
        *************************************************************


