
Running Job 1 of 1 fragments/A002/conf-0/spe_input.inp
qchem fragments/A002/conf-0/spe_input.inp_312484.0 /gpfs/fs0/scratch/a/aspuru/rhickman/descriptor_computation/qchem312484/ 0
/scinet/niagara/software/commercial/qc52/exe/qcprog.exe_s fragments/A002/conf-0/spe_input.inp_312484.0 /gpfs/fs0/scratch/a/aspuru/rhickman/descriptor_computation/qchem312484/
                  Welcome to Q-Chem
     A Quantum Leap Into The Future Of Chemistry


 Q-Chem 5.2, Q-Chem, Inc., Pleasanton, CA (2019)

 License issued to: SRG Alan Aspuru-Guzik, University of Toronto

 Yihan Shao,  Zhengting Gan,  E. Epifanovsky,  A. T. B. Gilbert,  M. Wormit,  
 J. Kussmann,  A. W. Lange,  A. Behn,  Jia Deng,  Xintian Feng,  D. Ghosh,  
 M. Goldey,  P. R. Horn,  L. D. Jacobson,  I. Kaliman,  T. Kus,  A. Landau,  
 Jie Liu,  E. I. Proynov,  R. M. Richard,  R. P. Steele,  E. J. Sundstrom,  
 H. L. Woodcock III,  P. M. Zimmerman,  D. Zuev,  B. Albrecht,  E. Alguire,  
 S. A. Baeppler,  D. Barton,  Z. Benda,  Y. A. Bernard,  E. J. Berquist,  
 K. B. Bravaya,  H. Burton,  D. Casanova,  Chun-Min Chang,  Yunqing Chen,  
 A. Chien,  K. D. Closser,  M. P. Coons,  S. Coriani,  S. Dasgupta,  
 A. L. Dempwolff,  M. Diedenhofen,  Hainam Do,  R. G. Edgar,  Po-Tung Fang,  
 S. Faraji,  S. Fatehi,  Qingguo Feng,  K. D. Fenk,  J. Fosso-Tande,  
 J. Gayvert,  Qinghui Ge,  A. Ghysels,  G. Gidofalvi,  J. Gomes,  
 J. Gonthier,  A. Gunina,  D. Hait,  M. W. D. Hanson-Heine,  
 P. H. P. Harbach,  A. W. Hauser,  M. F. Herbst,  J. E. Herr,  
 E. G. Hohenstein,  Z. C. Holden,  Kerwin Hui,  B. C. Huynh,  T.-C. Jagau,  
 Hyunjun Ji,  B. Kaduk,  K. Khistyaev,  Jaehoon Kim,  P. Klunzinger,  K. Koh,  
 D. Kosenkov,  L. Koulias,  T. Kowalczyk,  C. M. Krauter,  A. Kunitsa,  
 Ka Un Lao,  A. Laurent,  K. V. Lawler,  Joonho Lee,  D. Lefrancois,  
 S. Lehtola,  D. S. Levine,  Yi-Pei Li,  You-Sheng Lin,  Fenglai Liu,  
 E. Livshits,  A. Luenser,  P. Manohar,  E. Mansoor,  S. F. Manzer,  
 Shan-Ping Mao,  Yuezhi Mao,  N. Mardirossian,  A. V. Marenich,  
 T. Markovich,  L. A. Martinez-Martinez,  S. A. Maurer,  N. J. Mayhall,  
 S. C. McKenzie,  J.-M. Mewes,  P. Morgante,  A. F. Morrison,  
 J. W. Mullinax,  K. Nanda,  T. S. Nguyen-Beck,  R. Olivares-Amaya,  
 J. A. Parkhill,  Zheng Pei,  T. M. Perrine,  F. Plasser,  P. Pokhilko,  
 S. Prager,  A. Prociuk,  E. Ramos,  D. R. Rehn,  F. Rob,  M. Scheurer,  
 M. Schneider,  N. Sergueev,  S. M. Sharada,  S. Sharma,  D. W. Small,  
 T. Stauch,  T. Stein,  Yu-Chuan Su,  A. J. W. Thom,  A. Tkatchenko,  
 T. Tsuchimochi,  N. M. Tubman,  L. Vogt,  M. L. Vidal,  O. Vydrov,  
 M. A. Watson,  J. Wenzel,  M. de Wergifosse,  T. A. Wesolowski,  A. White,  
 J. Witte,  A. Yamada,  Jun Yang,  K. Yao,  S. Yeganeh,  S. R. Yost,  
 Zhi-Qiang You,  A. Zech,  Igor Ying Zhang,  Xing Zhang,  Yan Zhao,  
 Ying Zhu,  B. R. Brooks,  G. K. L. Chan,  C. J. Cramer,  M. S. Gordon,  
 W. J. Hehre,  A. Klamt,  M. W. Schmidt,  C. D. Sherrill,  D. G. Truhlar,  
 A. Aspuru-Guzik,  R. Baer,  A. T. Bell,  N. A. Besley,  Jeng-Da Chai,  
 A. E. DePrince, III,  R. A. DiStasio Jr.,  A. Dreuw,  B. D. Dunietz,  
 T. R. Furlani,  Chao-Ping Hsu,  Yousung Jung,  Jing Kong,  D. S. Lambrecht,  
 WanZhen Liang,  C. Ochsenfeld,  V. A. Rassolov,  L. V. Slipchenko,  
 J. E. Subotnik,  T. Van Voorhis,  J. M. Herbert,  A. I. Krylov,  
 P. M. W. Gill,  M. Head-Gordon

 Contributors to earlier versions of Q-Chem not listed above: 
 R. D. Adamson,  B. Austin,  J. Baker,  G. J. O. Beran,  K. Brandhorst,  
 S. T. Brown,  E. F. C. Byrd,  A. K. Chakraborty,  C.-L. Cheng,  
 Siu Hung Chien,  D. M. Chipman,  D. L. Crittenden,  H. Dachsel,  
 R. J. Doerksen,  A. D. Dutoi,  L. Fusti-Molnar,  W. A. Goddard III,  
 A. Golubeva-Zadorozhnaya,  S. R. Gwaltney,  G. Hawkins,  A. Heyden,  
 S. Hirata,  G. Kedziora,  F. J. Keil,  C. Kelley,  Jihan Kim,  R. A. King,  
 R. Z. Khaliullin,  P. P. Korambath,  W. Kurlancheek,  A. M. Lee,  M. S. Lee,  
 S. V. Levchenko,  Ching Yeh Lin,  D. Liotard,  R. C. Lochan,  I. Lotan,  
 P. E. Maslen,  N. Nair,  D. P. O'Neill,  D. Neuhauser,  E. Neuscamman,  
 C. M. Oana,  R. Olson,  B. Peters,  R. Peverati,  P. A. Pieniazek,  
 Y. M. Rhee,  J. Ritchie,  M. A. Rohrdanz,  E. Rosta,  N. J. Russ,  
 H. F. Schaefer III,  N. E. Schultz,  N. Shenvi,  A. C. Simmonett,  A. Sodt,  
 D. Stuck,  K. S. Thanthiriwatte,  V. Vanovschi,  Tao Wang,  A. Warshel,  
 C. F. Williams,  Q. Wu,  X. Xu,  W. Zhang

 Please cite Q-Chem as follows:
 Y. Shao et al., Mol. Phys. 113, 184-215 (2015)
 DOI: 10.1080/00268976.2014.952696

 Q-Chem 5.2.1 for Intel X86 EM64T Linux

 Parts of Q-Chem use Armadillo 8.300.2 (Tropical Shenanigans).
 http://arma.sourceforge.net/

 Q-Chem begins on Tue Feb  8 14:02:52 2022  

Host: 
0

     Scratch files written to /gpfs/fs0/scratch/a/aspuru/rhickman/descriptor_computation/qchem312484//
 Jul1719 |scratch|qcdevops|jenkins|workspace|build_RNUM -1
Processing $rem in /scinet/niagara/software/commercial/qc52/config/preferences:
	 MEM_TOTAL  4000 
NAlpha2: 160
NElect   160
Mult     1

Checking the input file for inconsistencies... 	...done.

--------------------------------------------------------------
User input:
--------------------------------------------------------------
$molecule
0 1
F         6.51588017030000    0.41487259790000   -0.09025503310000
C         5.23631241050000    0.07872885640000    0.08441336210000
F         5.18256815390000   -1.05447719820000    0.77793958610000
C         4.22837709320000    0.80126585550000   -0.38392626510000
C         2.80418357000000    0.55244073460000   -0.26717575350000
C         1.92146638070000    1.46180810160000   -0.85825091310000
C         0.55842346800000    1.28678364870000   -0.78774939160000
C         0.01925805440000    0.18728425030000   -0.11400133620000
N        -1.35742455350000    0.00483113120000   -0.03685242450000
C        -1.90212721800000   -1.28761460230000   -0.02566944540000
C        -1.36278215150000   -2.29032442700000   -0.83016511070000
C        -1.90686114700000   -3.56003146910000   -0.81585962190000
C        -2.99706997680000   -3.84724740050000   -0.01092140550000
C        -3.53990027340000   -2.85233206860000    0.78552367160000
C        -2.99784087520000   -1.58166140490000    0.78440698030000
C        -2.21672127640000    1.11088156540000    0.02999314990000
C        -3.43404884160000    1.09788584930000   -0.64933487910000
C        -4.28364315290000    2.18455993940000   -0.57379543620000
C        -3.93265453150000    3.29919546790000    0.17002604090000
C        -2.72330335890000    3.31717953480000    0.84543943520000
C        -1.87058122810000    2.23216966090000    0.78284115430000
C         0.89668682000000   -0.72414483480000    0.48025780740000
C         2.25991360510000   -0.54628952430000    0.40403312400000
H         4.51869380300000    1.69162447410000   -0.92335069220000
H         2.31736888310000    2.31499380960000   -1.38966507680000
H        -0.10319574000000    1.99660672180000   -1.26167348220000
H        -0.51972755120000   -2.06510244860000   -1.46688210440000
H        -1.48142226190000   -4.32799568590000   -1.44482033060000
H        -3.42129485960000   -4.83968699520000   -0.00503152840000
H        -4.38736755350000   -3.06859338150000    1.41911048120000
H        -3.41706358770000   -0.80866208480000    1.41175380990000
H        -3.70547102920000    0.23240069740000   -1.23591538870000
H        -5.22302791270000    2.16336633880000   -1.10626016710000
H        -4.59761821980000    4.14763713340000    0.22412632590000
H        -2.44495363860000    4.17912647990000    1.43368945760000
H        -0.93339773540000    2.24292661840000    1.31995499510000
H         0.49601182120000   -1.57348369590000    1.01330688350000
H         2.90431243230000   -1.26599227310000    0.88128842390000
$end

$rem
BASIS = 6-31G*
GUI = 2
METHOD = B3LYP
PRINT_ORBITALS false
MOLDEN_FORMAT false
--------------------------------------------------------------
 ----------------------------------------------------------------
             Standard Nuclear Orientation (Angstroms)
    I     Atom           X                Y                Z
 ----------------------------------------------------------------
    1      F       6.6154610445    -0.3865508717     0.0634441503
    2      C       5.3341579756    -0.0551589508    -0.1075446082
    3      F       5.2741689817     1.0767043438    -0.8027494942
    4      C       4.3303026456    -0.7804295776     0.3653108875
    5      C       2.9048714966    -0.5367639918     0.2528611830
    6      C       2.0272902205    -1.4482241136     0.8483442130
    7      C       0.6634192820    -1.2780689933     0.7820622113
    8      C       0.1181976919    -0.1815715240     0.1082956124
    9      N      -1.2593606598    -0.0040463331     0.0353991612
   10      C      -1.8086063200     1.2864725062     0.0238945532
   11      C      -1.2701130907     2.2923854736     0.8249547960
   12      C      -1.8186660062     3.5601628007     0.8103629816
   13      C      -2.9125216771     3.8422449997     0.0085629939
   14      C      -3.4545007390     2.8441276322    -0.7844479937
   15      C      -2.9080075621     1.5753578385    -0.7830366272
   16      C      -2.1150064821    -1.1131945090    -0.0267884776
   17      C      -3.3301232860    -1.1033188759     0.6565383002
   18      C      -4.1761631519    -2.1930714085     0.5855929522
   19      C      -3.8237419459    -3.3077052870    -0.1575533148
   20      C      -2.6165711064    -3.3225905644    -0.8369309207
   21      C      -1.7674403584    -2.2345127349    -0.7789342545
   22      C       0.9904728986     0.7319265999    -0.4903572813
   23      C       2.3545564798     0.5589507492    -0.4183481155
   24      H       4.6255048939    -1.6688774348     0.9052340413
   25      H       2.4279208219    -2.2991445229     1.3798470214
   26      H       0.0058501070    -1.9894093294     1.2593362641
   27      H      -0.4241804439     2.0711570009     1.4592500337
   28      H      -1.3938374092     4.3306445361     1.4366515851
   29      H      -3.3402260517     4.8331886607     0.0024458323
   30      H      -4.3048043990     3.0563853008    -1.4155837633
   31      H      -3.3265971524     0.7998653754    -1.4077236453
   32      H      -3.6026280718    -0.2378162095     1.2425907915
   33      H      -5.1138536940    -2.1742719587     1.1211250364
   34      H      -4.4859143123    -4.1585481074    -0.2080613274
   35      H      -2.3371567311    -4.1845336628    -1.4246816280
   36      H      -0.8320028400    -2.2428909816    -1.3191252793
   37      H       0.5850778907     1.5789808506    -1.0234728944
   38      H       2.9948599850     1.2801051497    -0.8989126464
 ----------------------------------------------------------------
 Molecular Point Group                 C1    NOp =  1
 Largest Abelian Subgroup              C1    NOp =  1
 Nuclear Repulsion Energy =        1749.75924136 hartrees
 There are       80 alpha and       80 beta electrons
 Requested basis set is 6-31G(d)
 There are 122 shells and 375 basis functions

 Total QAlloc Memory Limit   4000 MB
 Mega-Array Size       188 MB
 MEM_STATIC part       192 MB
 A cutoff of  1.0D-08 yielded   3709 shell pairs
 There are     36781 function pairs
 Smallest overlap matrix eigenvalue = 3.59E-04

 Scale SEOQF with 1.000000e-02/1.000000e-01/1.000000e+00

 Standard Electronic Orientation quadrupole field applied
 Nucleus-field energy     =    -0.0000000196 hartrees
 Guess from superposition of atomic densities
 Warning:  Energy on first SCF cycle will be non-variational
 SAD guess density has 160.000000 electrons

 -----------------------------------------------------------------------
  General SCF calculation program by
  Eric Jon Sundstrom, Paul Horn, Yuezhi Mao, Dmitri Zuev, Alec White,
  David Stuck, Shaama M.S., Shane Yost, Joonho Lee, David Small,
  Daniel Levine, Susi Lehtola, Hugh Burton, Evgeny Epifanovsky,
  Bang C. Huynh
 -----------------------------------------------------------------------
 Exchange:     0.2000 Hartree-Fock + 0.0800 Slater + 0.7200 B88
 Correlation:  0.1900 VWN1RPA + 0.8100 LYP
 Using SG-1 standard quadrature grid
 A restricted SCF calculation will be
 performed using DIIS
 SCF converges when DIIS error is below 1.0e-05
 ---------------------------------------
  Cycle       Energy         DIIS error
 ---------------------------------------
    1   -1031.4139992518      4.26e-02  
    2   -1025.2145902492      4.31e-03  
    3   -1024.9947420613      5.63e-03  
    4   -1025.5247310746      1.40e-03  
    5   -1025.5569781161      4.98e-04  
    6   -1025.5608858435      2.43e-04  
    7   -1025.5619814359      5.06e-05  
    8   -1025.5620182112      2.27e-05  
    9   -1025.5620275842      5.00e-06  Convergence criterion met
 ---------------------------------------
 SCF time:   CPU 105.35s  wall 105.00s 
 SCF   energy in the final basis set =    -1025.5620275842
 Total energy in the final basis set =    -1025.5620275842
 
 --------------------------------------------------------------
 
                    Orbital Energies (a.u.)
 --------------------------------------------------------------
 
 Alpha MOs
 -- Occupied --
-24.7392 -24.7284 -14.3674 -10.3498 -10.2278 -10.2270 -10.2269 -10.1988
-10.1984 -10.1893 -10.1881 -10.1880 -10.1879 -10.1878 -10.1865 -10.1851
-10.1850 -10.1849 -10.1849 -10.1848 -10.1846 -10.1830 -10.1829  -1.2791
 -1.2185  -0.9810  -0.8658  -0.8604  -0.8445  -0.8018  -0.7641  -0.7568
 -0.7479  -0.7464  -0.7426  -0.7087  -0.6476  -0.6341  -0.6199  -0.6089
 -0.6041  -0.6018  -0.5750  -0.5663  -0.5410  -0.5382  -0.5244  -0.5132
 -0.4986  -0.4843  -0.4737  -0.4615  -0.4547  -0.4499  -0.4443  -0.4357
 -0.4351  -0.4336  -0.4257  -0.4246  -0.4235  -0.4176  -0.4065  -0.3834
 -0.3758  -0.3745  -0.3707  -0.3617  -0.3581  -0.3520  -0.3431  -0.3405
 -0.3237  -0.2882  -0.2605  -0.2599  -0.2501  -0.2497  -0.2311  -0.1781
 -- Virtual --
 -0.0275  -0.0130  -0.0106   0.0086   0.0095   0.0255   0.0755   0.0892
  0.0955   0.0987   0.1235   0.1425   0.1432   0.1468   0.1548   0.1581
  0.1602   0.1630   0.1648   0.1842   0.1859   0.1884   0.1918   0.1924
  0.1936   0.1982   0.2073   0.2198   0.2625   0.2692   0.2847   0.2965
  0.2977   0.3084   0.3096   0.3187   0.3261   0.3337   0.3537   0.3681
  0.3896   0.3996   0.4147   0.4229   0.4584   0.4682   0.4852   0.5021
  0.5149   0.5186   0.5245   0.5316   0.5385   0.5433   0.5491   0.5522
  0.5587   0.5686   0.5709   0.5754   0.5820   0.5838   0.5875   0.5896
  0.5960   0.5971   0.5998   0.6039   0.6052   0.6106   0.6146   0.6162
  0.6168   0.6204   0.6266   0.6271   0.6329   0.6381   0.6411   0.6454
  0.6597   0.6726   0.6838   0.6891   0.6997   0.7050   0.7361   0.7820
  0.8042   0.8082   0.8112   0.8136   0.8161   0.8355   0.8380   0.8432
  0.8456   0.8472   0.8480   0.8492   0.8506   0.8714   0.8718   0.8795
  0.8870   0.8995   0.9027   0.9217   0.9237   0.9478   0.9621   0.9628
  0.9799   0.9870   0.9897   1.0040   1.0151   1.0174   1.0353   1.0432
  1.0477   1.0784   1.1021   1.1199   1.1226   1.1340   1.1568   1.1640
  1.1657   1.1669   1.1789   1.1856   1.1925   1.1958   1.2006   1.2202
  1.2314   1.2525   1.2558   1.2743   1.2988   1.3027   1.3072   1.3213
  1.3481   1.3641   1.3973   1.4080   1.4227   1.4278   1.4391   1.4427
  1.4474   1.4526   1.4644   1.4687   1.4727   1.4808   1.4825   1.4931
  1.4988   1.5102   1.5127   1.5154   1.5170   1.5204   1.5340   1.5993
  1.6501   1.7037   1.7172   1.7227   1.7407   1.7712   1.7800   1.7875
  1.7902   1.7996   1.8117   1.8376   1.8411   1.8422   1.8453   1.8520
  1.8753   1.8825   1.8968   1.9092   1.9212   1.9247   1.9303   1.9552
  1.9597   1.9705   1.9766   1.9794   1.9969   1.9979   2.0014   2.0192
  2.0390   2.0434   2.0700   2.0852   2.0876   2.0951   2.1356   2.1418
  2.1458   2.1552   2.1580   2.1643   2.1710   2.1766   2.1783   2.1852
  2.2020   2.2413   2.2480   2.2586   2.2613   2.2992   2.3081   2.3138
  2.3221   2.3281   2.3318   2.3348   2.3629   2.3690   2.4326   2.4418
  2.4907   2.5249   2.5266   2.5572   2.5593   2.5799   2.5996   2.6077
  2.6261   2.6347   2.6526   2.6652   2.6755   2.6841   2.6960   2.7326
  2.7413   2.7489   2.7586   2.7614   2.7703   2.7733   2.7763   2.7949
  2.8337   2.8517   2.8704   2.9197   2.9457   2.9628   3.0098   3.0223
  3.0644   3.1525   3.2420   3.2632   3.3349   3.4464   3.4722   3.4886
  4.0833   4.1044   4.1062   4.1190   4.1292   4.1323   4.1371   4.1776
  4.1872   4.2018   4.2863   4.3094   4.3405   4.3425   4.3759   4.3978
  4.4263   4.5061   4.7098   4.7194   4.7635   4.8251   5.2862
 --------------------------------------------------------------
 
          Ground-State Mulliken Net Atomic Charges

     Atom                 Charge (a.u.)
  ----------------------------------------
      1 F                    -0.252348
      2 C                     0.536436
      3 F                    -0.238179
      4 C                    -0.298852
      5 C                     0.198682
      6 C                    -0.205687
      7 C                    -0.176638
      8 C                     0.298445
      9 N                    -0.650907
     10 C                     0.276168
     11 C                    -0.165331
     12 C                    -0.138396
     13 C                    -0.127529
     14 C                    -0.138280
     15 C                    -0.164007
     16 C                     0.277629
     17 C                    -0.164877
     18 C                    -0.138143
     19 C                    -0.127914
     20 C                    -0.138106
     21 C                    -0.166114
     22 C                    -0.176282
     23 C                    -0.205806
     24 H                     0.156681
     25 H                     0.128588
     26 H                     0.149065
     27 H                     0.147150
     28 H                     0.131016
     29 H                     0.125760
     30 H                     0.130712
     31 H                     0.146696
     32 H                     0.146873
     33 H                     0.130632
     34 H                     0.125588
     35 H                     0.130642
     36 H                     0.147094
     37 H                     0.149768
     38 H                     0.139772
  ----------------------------------------
  Sum of atomic charges =     0.000000

 -----------------------------------------------------------------
                    Cartesian Multipole Moments
 -----------------------------------------------------------------
    Charge (ESU x 10^10)
                 0.0000
    Dipole Moment (Debye)
         X      -1.6502      Y      -0.4443      Z       0.3291
       Tot       1.7404
    Quadrupole Moments (Debye-Ang)
        XX    -131.6742     XY      -2.1896     YY    -119.6476
        XZ       2.1708     YZ       0.2840     ZZ    -129.3946
    Octopole Moments (Debye-Ang^2)
       XXX      -8.2606    XXY     -11.5895    XYY      11.2734
       YYY       9.1327    XXZ       5.4807    XYZ      -1.0924
       YYZ      -0.5112    XZZ      32.0418    YZZ       1.5961
       ZZZ      -7.0260
    Hexadecapole Moments (Debye-Ang^3)
      XXXX   -8156.3295   XXXY      25.4275   XXYY   -1713.5864
      XYYY       3.9932   YYYY   -3033.0420   XXXZ      -8.0669
      XXYZ     -61.5725   XYYZ      28.2781   YYYZ      57.4037
      XXZZ   -1371.7387   XYZZ      -0.6705   YYZZ    -606.6761
      XZZZ     -32.4654   YZZZ      -5.2522   ZZZZ    -450.0334
 -----------------------------------------------------------------
Archival summary:
1\1\nia2015.scinet.local\SP\ProcedureUnspecified\6-31G*\212015\rhickman\TueFeb814:04:382022TueFeb814:04:382022\0\\#,ProcedureUnspecified,6-31G*,\\0,1\N\C,1,1.39086\C,2,1.39769,1,120.781\H,3,1.0799,2,119.491,1,-0.608364,0\C,3,1.37604,2,120.455,1,179.903,0\H,5,1.08031,3,119.253,2,179.59,0\C,2,1.39776,1,120.812,3,179.996,0\H,7,1.07984,2,119.329,1,-0.623454,0\C,7,1.37689,2,120.914,1,179.935,0\H,9,1.07749,7,118.772,2,179.524,0\C,9,1.39784,7,120.905,2,0.149062,0\C,1,1.40221,2,120.38,3,-33.2334,0\C,12,1.39411,1,120.3,2,141.551,0\H,13,1.08019,12,119.439,1,-0.612947,0\C,13,1.38144,12,120.201,1,179.505,0\H,15,1.08001,13,119.507,12,179.871,0\C,15,1.38523,13,120.431,12,0.357461,0\H,17,1.07933,15,120.221,13,179.803,0\C,17,1.38529,15,119.567,13,-0.279377,0\H,19,1.08003,17,120.06,15,-179.545,0\C,19,1.38141,17,120.437,15,-0.122593,0\H,21,1.08024,19,120.344,17,-179.245,0\C,1,1.40258,2,120.379,3,146.736,0\C,23,1.39401,1,120.282,2,141.483,0\H,24,1.0802,23,119.445,1,-0.677591,0\C,24,1.38146,23,120.192,1,179.454,0\H,26,1.08,24,119.509,23,179.861,0\C,26,1.38522,24,120.425,23,0.354483,0\H,28,1.07932,26,120.216,24,179.803,0\C,28,1.38527,26,119.576,24,-0.248376,0\H,30,1.07998,28,120.066,26,-179.597,0\C,30,1.38144,28,120.434,26,-0.151287,0\H,32,1.08022,30,120.339,28,-179.299,0\C,11,1.45047,9,123.766,7,179.912,0\H,34,1.08074,11,116.44,9,-179.569,0\C,34,1.32565,11,128.654,9,0.472617,0\F,36,1.32967,34,128.174,11,-0.00433498,0\F,36,1.33446,34,123.06,11,179.967,0\\\@

 Total job time:  106.00s(wall), 105.71s(cpu) 
 Tue Feb  8 14:04:38 2022

        *************************************************************
        *                                                           *
        *  Thank you very much for using Q-Chem.  Have a nice day.  *
        *                                                           *
        *************************************************************


