
Running Job 1 of 1 fragments/C039/conf-2/spe_input.inp
qchem fragments/C039/conf-2/spe_input.inp_300382.0 /gpfs/fs0/scratch/a/aspuru/rhickman/descriptor_computation/qchem300382/ 0
/scinet/niagara/software/commercial/qc52/exe/qcprog.exe_s fragments/C039/conf-2/spe_input.inp_300382.0 /gpfs/fs0/scratch/a/aspuru/rhickman/descriptor_computation/qchem300382/
                  Welcome to Q-Chem
     A Quantum Leap Into The Future Of Chemistry


 Q-Chem 5.2, Q-Chem, Inc., Pleasanton, CA (2019)

 License issued to: SRG Alan Aspuru-Guzik, University of Toronto

 Yihan Shao,  Zhengting Gan,  E. Epifanovsky,  A. T. B. Gilbert,  M. Wormit,  
 J. Kussmann,  A. W. Lange,  A. Behn,  Jia Deng,  Xintian Feng,  D. Ghosh,  
 M. Goldey,  P. R. Horn,  L. D. Jacobson,  I. Kaliman,  T. Kus,  A. Landau,  
 Jie Liu,  E. I. Proynov,  R. M. Richard,  R. P. Steele,  E. J. Sundstrom,  
 H. L. Woodcock III,  P. M. Zimmerman,  D. Zuev,  B. Albrecht,  E. Alguire,  
 S. A. Baeppler,  D. Barton,  Z. Benda,  Y. A. Bernard,  E. J. Berquist,  
 K. B. Bravaya,  H. Burton,  D. Casanova,  Chun-Min Chang,  Yunqing Chen,  
 A. Chien,  K. D. Closser,  M. P. Coons,  S. Coriani,  S. Dasgupta,  
 A. L. Dempwolff,  M. Diedenhofen,  Hainam Do,  R. G. Edgar,  Po-Tung Fang,  
 S. Faraji,  S. Fatehi,  Qingguo Feng,  K. D. Fenk,  J. Fosso-Tande,  
 J. Gayvert,  Qinghui Ge,  A. Ghysels,  G. Gidofalvi,  J. Gomes,  
 J. Gonthier,  A. Gunina,  D. Hait,  M. W. D. Hanson-Heine,  
 P. H. P. Harbach,  A. W. Hauser,  M. F. Herbst,  J. E. Herr,  
 E. G. Hohenstein,  Z. C. Holden,  Kerwin Hui,  B. C. Huynh,  T.-C. Jagau,  
 Hyunjun Ji,  B. Kaduk,  K. Khistyaev,  Jaehoon Kim,  P. Klunzinger,  K. Koh,  
 D. Kosenkov,  L. Koulias,  T. Kowalczyk,  C. M. Krauter,  A. Kunitsa,  
 Ka Un Lao,  A. Laurent,  K. V. Lawler,  Joonho Lee,  D. Lefrancois,  
 S. Lehtola,  D. S. Levine,  Yi-Pei Li,  You-Sheng Lin,  Fenglai Liu,  
 E. Livshits,  A. Luenser,  P. Manohar,  E. Mansoor,  S. F. Manzer,  
 Shan-Ping Mao,  Yuezhi Mao,  N. Mardirossian,  A. V. Marenich,  
 T. Markovich,  L. A. Martinez-Martinez,  S. A. Maurer,  N. J. Mayhall,  
 S. C. McKenzie,  J.-M. Mewes,  P. Morgante,  A. F. Morrison,  
 J. W. Mullinax,  K. Nanda,  T. S. Nguyen-Beck,  R. Olivares-Amaya,  
 J. A. Parkhill,  Zheng Pei,  T. M. Perrine,  F. Plasser,  P. Pokhilko,  
 S. Prager,  A. Prociuk,  E. Ramos,  D. R. Rehn,  F. Rob,  M. Scheurer,  
 M. Schneider,  N. Sergueev,  S. M. Sharada,  S. Sharma,  D. W. Small,  
 T. Stauch,  T. Stein,  Yu-Chuan Su,  A. J. W. Thom,  A. Tkatchenko,  
 T. Tsuchimochi,  N. M. Tubman,  L. Vogt,  M. L. Vidal,  O. Vydrov,  
 M. A. Watson,  J. Wenzel,  M. de Wergifosse,  T. A. Wesolowski,  A. White,  
 J. Witte,  A. Yamada,  Jun Yang,  K. Yao,  S. Yeganeh,  S. R. Yost,  
 Zhi-Qiang You,  A. Zech,  Igor Ying Zhang,  Xing Zhang,  Yan Zhao,  
 Ying Zhu,  B. R. Brooks,  G. K. L. Chan,  C. J. Cramer,  M. S. Gordon,  
 W. J. Hehre,  A. Klamt,  M. W. Schmidt,  C. D. Sherrill,  D. G. Truhlar,  
 A. Aspuru-Guzik,  R. Baer,  A. T. Bell,  N. A. Besley,  Jeng-Da Chai,  
 A. E. DePrince, III,  R. A. DiStasio Jr.,  A. Dreuw,  B. D. Dunietz,  
 T. R. Furlani,  Chao-Ping Hsu,  Yousung Jung,  Jing Kong,  D. S. Lambrecht,  
 WanZhen Liang,  C. Ochsenfeld,  V. A. Rassolov,  L. V. Slipchenko,  
 J. E. Subotnik,  T. Van Voorhis,  J. M. Herbert,  A. I. Krylov,  
 P. M. W. Gill,  M. Head-Gordon

 Contributors to earlier versions of Q-Chem not listed above: 
 R. D. Adamson,  B. Austin,  J. Baker,  G. J. O. Beran,  K. Brandhorst,  
 S. T. Brown,  E. F. C. Byrd,  A. K. Chakraborty,  C.-L. Cheng,  
 Siu Hung Chien,  D. M. Chipman,  D. L. Crittenden,  H. Dachsel,  
 R. J. Doerksen,  A. D. Dutoi,  L. Fusti-Molnar,  W. A. Goddard III,  
 A. Golubeva-Zadorozhnaya,  S. R. Gwaltney,  G. Hawkins,  A. Heyden,  
 S. Hirata,  G. Kedziora,  F. J. Keil,  C. Kelley,  Jihan Kim,  R. A. King,  
 R. Z. Khaliullin,  P. P. Korambath,  W. Kurlancheek,  A. M. Lee,  M. S. Lee,  
 S. V. Levchenko,  Ching Yeh Lin,  D. Liotard,  R. C. Lochan,  I. Lotan,  
 P. E. Maslen,  N. Nair,  D. P. O'Neill,  D. Neuhauser,  E. Neuscamman,  
 C. M. Oana,  R. Olson,  B. Peters,  R. Peverati,  P. A. Pieniazek,  
 Y. M. Rhee,  J. Ritchie,  M. A. Rohrdanz,  E. Rosta,  N. J. Russ,  
 H. F. Schaefer III,  N. E. Schultz,  N. Shenvi,  A. C. Simmonett,  A. Sodt,  
 D. Stuck,  K. S. Thanthiriwatte,  V. Vanovschi,  Tao Wang,  A. Warshel,  
 C. F. Williams,  Q. Wu,  X. Xu,  W. Zhang

 Please cite Q-Chem as follows:
 Y. Shao et al., Mol. Phys. 113, 184-215 (2015)
 DOI: 10.1080/00268976.2014.952696

 Q-Chem 5.2.1 for Intel X86 EM64T Linux

 Parts of Q-Chem use Armadillo 8.300.2 (Tropical Shenanigans).
 http://arma.sourceforge.net/

 Q-Chem begins on Tue Feb  8 13:28:14 2022  

Host: 
0

     Scratch files written to /gpfs/fs0/scratch/a/aspuru/rhickman/descriptor_computation/qchem300382//
 Jul1719 |scratch|qcdevops|jenkins|workspace|build_RNUM -1
Processing $rem in /scinet/niagara/software/commercial/qc52/config/preferences:
	 MEM_TOTAL  4000 
NAlpha2: 150
NElect   150
Mult     1

Checking the input file for inconsistencies... 	...done.

--------------------------------------------------------------
User input:
--------------------------------------------------------------
$molecule
0 1
C        -7.12304944560000   -0.31565159770000   -0.23146909090000
C        -5.86282156780000   -0.71828270430000   -0.13196233870000
C        -4.68040581420000    0.13415476720000   -0.04986167010000
C        -4.72936750220000    1.53100298770000   -0.01040445520000
C        -3.54190773720000    2.23725903870000    0.06218269820000
C        -2.34509228140000    1.54436690610000    0.09112732410000
C        -2.38481537300000    0.14956019140000    0.05039900690000
C        -1.14424173170000   -0.64029890350000    0.07377118520000
C        -1.19193496970000   -2.03571168720000    0.09662466960000
C        -0.00001658860000   -2.73803793080000    0.11000890360000
C         1.19189313030000   -2.03571094920000    0.09586924630000
C         1.14418019150000   -0.64029775470000    0.07309510630000
C         2.38474159720000    0.14956878150000    0.04927031570000
C         2.34507976610000    1.54433382990000    0.09147007820000
C         3.54187009640000    2.23723560750000    0.06173304820000
C         4.72926116570000    1.53102667930000   -0.01240220520000
C         4.68027983660000    0.13419807020000   -0.05263917960000
C         5.86253882820000   -0.71831051340000   -0.13603922190000
C         7.12391864810000   -0.31592434610000   -0.22095893450000
N         3.52546747390000   -0.52538659170000   -0.01815553130000
N        -0.00003254320000    0.03393576930000    0.06590291180000
N        -3.52562067910000   -0.52545067780000   -0.01521339670000
H        -7.93248379150000   -1.02298967220000   -0.29078823560000
H        -7.40498244270000    0.72331529480000   -0.26059721120000
H        -5.62849185510000   -1.77407674540000   -0.11316940890000
H        -5.67415477700000    2.04968577760000   -0.03391176470000
H        -3.55099675420000    3.31787208610000    0.09517822120000
H        -1.39258112740000    2.04418055530000    0.14455179300000
H        -2.15125323210000   -2.52618810700000    0.10233023060000
H        -0.00001084170000   -3.81883272810000    0.12946087510000
H         2.15121484110000   -2.52618837290000    0.10098300240000
H         1.39263066530000    2.04411540190000    0.14628834000000
H         3.55099011960000    3.31783349760000    0.09522185970000
H         5.67396526860000    2.04979209080000   -0.03725711190000
H         5.62715567570000   -1.77402152310000   -0.12999253430000
H         7.40719592420000    0.72297950030000   -0.23539976850000
H         7.93306983780000   -1.02343966440000   -0.28197809730000
$end

$rem
BASIS = 6-31G*
GUI = 2
METHOD = B3LYP
PRINT_ORBITALS false
MOLDEN_FORMAT false
--------------------------------------------------------------
 ----------------------------------------------------------------
             Standard Nuclear Orientation (Angstroms)
    I     Atom           X                Y                Z
 ----------------------------------------------------------------
    1      C       7.1230712978     0.3226373392    -0.2275771732
    2      C       5.8628325522     0.7248248582    -0.1264277327
    3      C       4.6804148411    -0.1279681929    -0.0481363199
    4      C       4.7293814264    -1.5249745435    -0.0147507008
    5      C       3.5419196508    -2.2315462070     0.0546626525
    6      C       2.3450976303    -1.5387931554     0.0865184975
    7      C       2.3848159448    -0.1438222710     0.0518604780
    8      C       1.1442356407     0.6459208197     0.0785619380
    9      C       1.1919186729     2.0412212711     0.1074884348
   10      C      -0.0000050010     2.7434760495     0.1238254854
   11      C      -1.1919093539     2.0412106001     0.1065295578
   12      C      -1.1441862164     0.6459099217     0.0776905457
   13      C      -2.3847409116    -0.1438523999     0.0503246826
   14      C      -2.3450744295    -1.5387875781     0.0864610901
   15      C      -3.5418581187    -2.2315601010     0.0536085145
   16      C      -4.7292470363    -1.5250419956    -0.0175558206
   17      C      -4.6802705382    -0.1280513216    -0.0517129177
   18      C      -5.8625274532     0.7248053799    -0.1315052055
   19      C      -7.1238976421     0.3227853708    -0.2182818962
   20      N      -3.5254650244     0.5313835233    -0.0142622597
   21      N       0.0000311167    -0.0282795987     0.0676635898
   22      N       3.5256228514     0.5314739118    -0.0107180701
   23      H       7.9325065173     1.0302312123    -0.2837502014
   24      H       7.4050129261    -0.7161914740    -0.2611998003
   25      H       5.6284949905     1.7805258763    -0.1030629480
   26      H       5.6741737722    -2.0435449466    -0.0404330913
   27      H       3.5510122457    -3.3122924925     0.0829586596
   28      H       1.3925848785    -2.0388397214     0.1376872934
   29      H       2.1512335431     2.5316735558     0.1154090792
   30      H      -0.0000188020     3.8241760203     0.1479780423
   31      H      -2.1512343994     2.5316558234     0.1136946530
   32      H      -1.3926270526    -2.0387975660     0.1391863920
   33      H      -3.5509746061    -3.3122934759     0.0823963172
   34      H      -5.6739459458    -2.0436996358    -0.0447474213
   35      H      -5.6271510634     1.7804814101    -0.1208468140
   36      H      -7.4071675385    -0.7160474114    -0.2372653419
   37      H      -7.9330478083     1.0305549048    -0.2762923003
 ----------------------------------------------------------------
 Molecular Point Group                 C1    NOp =  1
 Largest Abelian Subgroup              C1    NOp =  1
 Nuclear Repulsion Energy =        1532.38850412 hartrees
 There are       75 alpha and       75 beta electrons
 Requested basis set is 6-31G(d)
 There are 118 shells and 360 basis functions

 Total QAlloc Memory Limit   4000 MB
 Mega-Array Size       188 MB
 MEM_STATIC part       192 MB
 A cutoff of  1.0D-08 yielded   3144 shell pairs
 There are     32266 function pairs
 Smallest overlap matrix eigenvalue = 5.32E-04

 Scale SEOQF with 1.000000e-02/1.000000e-01/1.000000e+00

 Standard Electronic Orientation quadrupole field applied
 Nucleus-field energy     =     0.0000000286 hartrees
 Guess from superposition of atomic densities
 Warning:  Energy on first SCF cycle will be non-variational
 SAD guess density has 150.000000 electrons

 -----------------------------------------------------------------------
  General SCF calculation program by
  Eric Jon Sundstrom, Paul Horn, Yuezhi Mao, Dmitri Zuev, Alec White,
  David Stuck, Shaama M.S., Shane Yost, Joonho Lee, David Small,
  Daniel Levine, Susi Lehtola, Hugh Burton, Evgeny Epifanovsky,
  Bang C. Huynh
 -----------------------------------------------------------------------
 Exchange:     0.2000 Hartree-Fock + 0.0800 Slater + 0.7200 B88
 Correlation:  0.1900 VWN1RPA + 0.8100 LYP
 Using SG-1 standard quadrature grid
 A restricted SCF calculation will be
 performed using DIIS
 SCF converges when DIIS error is below 1.0e-05
 ---------------------------------------
  Cycle       Energy         DIIS error
 ---------------------------------------
    1    -902.9038957934      4.39e-02  
    2    -897.0272218120      3.87e-03  
    3    -897.0558579195      3.82e-03  
    4    -897.2807744897      6.97e-04  
    5    -897.2869621142      2.54e-04  
    6    -897.2878111067      1.07e-04  
    7    -897.2879808630      3.99e-05  
    8    -897.2880066794      7.16e-06  Convergence criterion met
 ---------------------------------------
 SCF time:   CPU 75.55s  wall 76.00s 
 SCF   energy in the final basis set =     -897.2880066794
 Total energy in the final basis set =     -897.2880066794
 
 --------------------------------------------------------------
 
                    Orbital Energies (a.u.)
 --------------------------------------------------------------
 
 Alpha MOs
 -- Occupied --
-14.3247 -14.3231 -14.3231 -10.2262 -10.2262 -10.2225 -10.2225 -10.2218
-10.2218 -10.2037 -10.2036 -10.1994 -10.1952 -10.1952 -10.1894 -10.1894
-10.1884 -10.1884 -10.1874 -10.1873 -10.1850 -10.1850  -0.9625  -0.9515
 -0.9376  -0.8171  -0.8077  -0.8042  -0.8018  -0.7973  -0.7708  -0.7401
 -0.7229  -0.6632  -0.6540  -0.6453  -0.6322  -0.6128  -0.5954  -0.5664
 -0.5638  -0.5246  -0.5130  -0.4989  -0.4984  -0.4905  -0.4728  -0.4664
 -0.4569  -0.4509  -0.4362  -0.4276  -0.4254  -0.4195  -0.4116  -0.4110
 -0.4076  -0.3983  -0.3873  -0.3802  -0.3715  -0.3607  -0.3571  -0.3501
 -0.3199  -0.3076  -0.2966  -0.2899  -0.2776  -0.2695  -0.2543  -0.2522
 -0.2453  -0.2305  -0.2187
 -- Virtual --
 -0.0507  -0.0488  -0.0378  -0.0303   0.0051   0.0289   0.0632   0.0809
  0.0938   0.1027   0.1143   0.1198   0.1239   0.1299   0.1371   0.1470
  0.1542   0.1745   0.1822   0.1845   0.2057   0.2096   0.2128   0.2159
  0.2193   0.2465   0.2479   0.2567   0.2770   0.2792   0.2917   0.3000
  0.3011   0.3040   0.3120   0.3173   0.3353   0.3476   0.3496   0.3777
  0.3826   0.4100   0.4252   0.4277   0.4491   0.4494   0.4661   0.4708
  0.5037   0.5065   0.5109   0.5153   0.5225   0.5355   0.5372   0.5436
  0.5467   0.5584   0.5746   0.5766   0.5784   0.5836   0.5889   0.5894
  0.5937   0.5955   0.5968   0.6131   0.6151   0.6175   0.6227   0.6246
  0.6341   0.6344   0.6351   0.6448   0.6465   0.6584   0.6610   0.6651
  0.6766   0.6881   0.6905   0.7009   0.7069   0.7146   0.7257   0.7394
  0.7598   0.8015   0.8118   0.8125   0.8182   0.8250   0.8288   0.8345
  0.8419   0.8506   0.8724   0.8807   0.8812   0.8846   0.8916   0.8958
  0.9020   0.9024   0.9131   0.9308   0.9312   0.9387   0.9446   0.9573
  0.9579   0.9623   0.9645   0.9774   0.9779   1.0045   1.0048   1.0218
  1.0329   1.0684   1.0888   1.1102   1.1117   1.1365   1.1498   1.1530
  1.1577   1.1967   1.2049   1.2127   1.2210   1.2294   1.2390   1.2486
  1.2626   1.2663   1.2761   1.2800   1.2862   1.3052   1.3327   1.3406
  1.3436   1.3645   1.3832   1.3899   1.4074   1.4429   1.4475   1.4495
  1.4589   1.4654   1.4679   1.4693   1.4814   1.4908   1.5005   1.5088
  1.5202   1.5286   1.5605   1.5642   1.6148   1.6205   1.6539   1.6746
  1.6746   1.6943   1.7132   1.7222   1.7402   1.7709   1.8025   1.8038
  1.8193   1.8217   1.8313   1.8320   1.8392   1.8419   1.8743   1.8967
  1.9066   1.9470   1.9477   1.9587   1.9668   1.9670   1.9908   1.9909
  2.0314   2.0322   2.0406   2.0587   2.0796   2.1069   2.1271   2.1281
  2.1461   2.1507   2.1707   2.1725   2.1922   2.1981   2.1996   2.2073
  2.2280   2.2322   2.2451   2.2470   2.2496   2.2639   2.2723   2.2868
  2.2951   2.3424   2.3506   2.3558   2.3864   2.3974   2.4085   2.4285
  2.4359   2.4379   2.4897   2.5144   2.5393   2.5561   2.5775   2.5925
  2.6188   2.6193   2.6279   2.6537   2.6665   2.6693   2.6765   2.6833
  2.7031   2.7276   2.7299   2.7377   2.7749   2.7771   2.7880   2.8409
  2.8586   2.8611   2.8919   2.9026   2.9398   2.9468   2.9617   2.9794
  3.1280   3.1961   3.2861   3.3644   3.4033   3.4873   3.5488   4.0507
  4.0683   4.0727   4.1029   4.1111   4.1399   4.1476   4.1635   4.1726
  4.1993   4.2277   4.2586   4.2857   4.3431   4.3988   4.4548   4.4586
  4.4795   4.5187   4.6214   4.7063   4.7543
 --------------------------------------------------------------
 
          Ground-State Mulliken Net Atomic Charges

     Atom                 Charge (a.u.)
  ----------------------------------------
      1 C                    -0.347365
      2 C                    -0.093674
      3 C                     0.317289
      4 C                    -0.176104
      5 C                    -0.100691
      6 C                    -0.154356
      7 C                     0.262084
      8 C                     0.270678
      9 C                    -0.152778
     10 C                    -0.099086
     11 C                    -0.152778
     12 C                     0.270675
     13 C                     0.262093
     14 C                    -0.154354
     15 C                    -0.100692
     16 C                    -0.176103
     17 C                     0.317359
     18 C                    -0.093643
     19 C                    -0.347426
     20 N                    -0.583529
     21 N                    -0.596898
     22 N                    -0.583484
     23 H                     0.149429
     24 H                     0.143071
     25 H                     0.142216
     26 H                     0.134998
     27 H                     0.139773
     28 H                     0.163119
     29 H                     0.163414
     30 H                     0.140756
     31 H                     0.163411
     32 H                     0.163116
     33 H                     0.139774
     34 H                     0.134986
     35 H                     0.142216
     36 H                     0.143073
     37 H                     0.149433
  ----------------------------------------
  Sum of atomic charges =     0.000001

 -----------------------------------------------------------------
                    Cartesian Multipole Moments
 -----------------------------------------------------------------
    Charge (ESU x 10^10)
                 0.0000
    Dipole Moment (Debye)
         X      -0.0000      Y      -1.6789      Z       0.0887
       Tot       1.6812
    Quadrupole Moments (Debye-Ang)
        XX    -104.2110     XY       0.0027     YY    -109.5435
        XZ      -0.0210     YZ       0.0289     ZZ    -131.3366
    Octopole Moments (Debye-Ang^2)
       XXX      -0.0526    XXY     -41.5093    XYY      -0.0008
       YYY      -2.9845    XXZ      -8.9832    XYZ       0.1613
       YYZ       1.6203    XZZ       0.0291    YZZ       0.9371
       ZZZ       0.6465
    Hexadecapole Moments (Debye-Ang^3)
      XXXX  -10677.6433   XXXY       0.2658   XXYY   -2079.9932
      XYYY       0.0063   YYYY   -1420.4578   XXXZ      -2.4663
      XXYZ      -2.5864   XYYZ       0.1644   YYYZ      -0.0042
      XXZZ   -2232.8228   XYZZ      -0.0547   YYZZ    -312.8204
      XZZZ       0.0581   YZZZ       0.2091   ZZZZ    -140.7615
 -----------------------------------------------------------------
Archival summary:
1\1\nia2015.scinet.local\SP\ProcedureUnspecified\6-31G*\31915\rhickman\TueFeb813:29:302022TueFeb813:29:302022\0\\#,ProcedureUnspecified,6-31G*,\\0,1\N\C,1,1.32811\C,1,1.32811,2,118.979\C,2,1.39641,1,122.468,3,-0.350301,0\H,4,1.07745,2,119.038,1,-179.981,0\C,4,1.38351,2,118.555,1,0.0686757,0\H,6,1.08097,4,120.513,2,-179.893,0\C,6,1.38351,4,118.974,2,0.212671,0\H,8,1.07745,6,122.406,4,179.735,0\C,3,1.47087,1,116.996,2,-179.348,0\N,10,1.32717,3,116.914,1,176.439,0\C,11,1.33034,10,119.687,3,-179.48,0\C,10,1.39597,3,120.803,1,-3.335,0\H,13,1.07701,10,119.361,3,-0.264304,0\C,13,1.38322,10,118.377,3,179.791,0\H,15,1.08115,13,120.485,10,179.812,0\C,15,1.38352,13,119.21,10,-0.226348,0\H,17,1.07806,15,120.512,13,179.986,0\C,12,1.45996,11,114.518,10,179.548,0\H,19,1.08165,12,113.172,11,2.29575,0\C,19,1.32672,12,126.607,11,-177.205,0\H,21,1.07658,19,121.259,12,179.736,0\H,21,1.07693,19,122.921,12,-0.115007,0\C,2,1.47087,1,116.996,3,179.36,0\N,24,1.32716,2,116.914,1,-176.384,0\C,25,1.33035,24,119.688,2,179.512,0\C,24,1.39597,2,120.803,1,3.39217,0\H,27,1.07701,24,119.361,2,0.258881,0\C,27,1.38322,24,118.377,2,-179.777,0\H,29,1.08116,27,120.485,24,-179.849,0\C,29,1.38352,27,119.21,24,0.195083,0\H,31,1.07805,29,120.51,27,179.971,0\C,26,1.45995,25,114.514,24,-179.583,0\H,33,1.08165,26,113.165,25,-1.61203,0\C,33,1.32673,26,126.617,25,177.999,0\H,35,1.07658,33,121.257,26,-179.779,0\H,35,1.07693,33,122.924,26,0.107093,0\\\@

 Total job time:  76.27s(wall), 75.90s(cpu) 
 Tue Feb  8 13:29:30 2022

        *************************************************************
        *                                                           *
        *  Thank you very much for using Q-Chem.  Have a nice day.  *
        *                                                           *
        *************************************************************


