
Running Job 1 of 1 fragments/A004/conf-0/spe_input.inp
qchem fragments/A004/conf-0/spe_input.inp_203596.0 /gpfs/fs0/scratch/a/aspuru/rhickman/descriptor_computation/qchem203596/ 0
/scinet/niagara/software/commercial/qc52/exe/qcprog.exe_s fragments/A004/conf-0/spe_input.inp_203596.0 /gpfs/fs0/scratch/a/aspuru/rhickman/descriptor_computation/qchem203596/
                  Welcome to Q-Chem
     A Quantum Leap Into The Future Of Chemistry


 Q-Chem 5.2, Q-Chem, Inc., Pleasanton, CA (2019)

 License issued to: SRG Alan Aspuru-Guzik, University of Toronto

 Yihan Shao,  Zhengting Gan,  E. Epifanovsky,  A. T. B. Gilbert,  M. Wormit,  
 J. Kussmann,  A. W. Lange,  A. Behn,  Jia Deng,  Xintian Feng,  D. Ghosh,  
 M. Goldey,  P. R. Horn,  L. D. Jacobson,  I. Kaliman,  T. Kus,  A. Landau,  
 Jie Liu,  E. I. Proynov,  R. M. Richard,  R. P. Steele,  E. J. Sundstrom,  
 H. L. Woodcock III,  P. M. Zimmerman,  D. Zuev,  B. Albrecht,  E. Alguire,  
 S. A. Baeppler,  D. Barton,  Z. Benda,  Y. A. Bernard,  E. J. Berquist,  
 K. B. Bravaya,  H. Burton,  D. Casanova,  Chun-Min Chang,  Yunqing Chen,  
 A. Chien,  K. D. Closser,  M. P. Coons,  S. Coriani,  S. Dasgupta,  
 A. L. Dempwolff,  M. Diedenhofen,  Hainam Do,  R. G. Edgar,  Po-Tung Fang,  
 S. Faraji,  S. Fatehi,  Qingguo Feng,  K. D. Fenk,  J. Fosso-Tande,  
 J. Gayvert,  Qinghui Ge,  A. Ghysels,  G. Gidofalvi,  J. Gomes,  
 J. Gonthier,  A. Gunina,  D. Hait,  M. W. D. Hanson-Heine,  
 P. H. P. Harbach,  A. W. Hauser,  M. F. Herbst,  J. E. Herr,  
 E. G. Hohenstein,  Z. C. Holden,  Kerwin Hui,  B. C. Huynh,  T.-C. Jagau,  
 Hyunjun Ji,  B. Kaduk,  K. Khistyaev,  Jaehoon Kim,  P. Klunzinger,  K. Koh,  
 D. Kosenkov,  L. Koulias,  T. Kowalczyk,  C. M. Krauter,  A. Kunitsa,  
 Ka Un Lao,  A. Laurent,  K. V. Lawler,  Joonho Lee,  D. Lefrancois,  
 S. Lehtola,  D. S. Levine,  Yi-Pei Li,  You-Sheng Lin,  Fenglai Liu,  
 E. Livshits,  A. Luenser,  P. Manohar,  E. Mansoor,  S. F. Manzer,  
 Shan-Ping Mao,  Yuezhi Mao,  N. Mardirossian,  A. V. Marenich,  
 T. Markovich,  L. A. Martinez-Martinez,  S. A. Maurer,  N. J. Mayhall,  
 S. C. McKenzie,  J.-M. Mewes,  P. Morgante,  A. F. Morrison,  
 J. W. Mullinax,  K. Nanda,  T. S. Nguyen-Beck,  R. Olivares-Amaya,  
 J. A. Parkhill,  Zheng Pei,  T. M. Perrine,  F. Plasser,  P. Pokhilko,  
 S. Prager,  A. Prociuk,  E. Ramos,  D. R. Rehn,  F. Rob,  M. Scheurer,  
 M. Schneider,  N. Sergueev,  S. M. Sharada,  S. Sharma,  D. W. Small,  
 T. Stauch,  T. Stein,  Yu-Chuan Su,  A. J. W. Thom,  A. Tkatchenko,  
 T. Tsuchimochi,  N. M. Tubman,  L. Vogt,  M. L. Vidal,  O. Vydrov,  
 M. A. Watson,  J. Wenzel,  M. de Wergifosse,  T. A. Wesolowski,  A. White,  
 J. Witte,  A. Yamada,  Jun Yang,  K. Yao,  S. Yeganeh,  S. R. Yost,  
 Zhi-Qiang You,  A. Zech,  Igor Ying Zhang,  Xing Zhang,  Yan Zhao,  
 Ying Zhu,  B. R. Brooks,  G. K. L. Chan,  C. J. Cramer,  M. S. Gordon,  
 W. J. Hehre,  A. Klamt,  M. W. Schmidt,  C. D. Sherrill,  D. G. Truhlar,  
 A. Aspuru-Guzik,  R. Baer,  A. T. Bell,  N. A. Besley,  Jeng-Da Chai,  
 A. E. DePrince, III,  R. A. DiStasio Jr.,  A. Dreuw,  B. D. Dunietz,  
 T. R. Furlani,  Chao-Ping Hsu,  Yousung Jung,  Jing Kong,  D. S. Lambrecht,  
 WanZhen Liang,  C. Ochsenfeld,  V. A. Rassolov,  L. V. Slipchenko,  
 J. E. Subotnik,  T. Van Voorhis,  J. M. Herbert,  A. I. Krylov,  
 P. M. W. Gill,  M. Head-Gordon

 Contributors to earlier versions of Q-Chem not listed above: 
 R. D. Adamson,  B. Austin,  J. Baker,  G. J. O. Beran,  K. Brandhorst,  
 S. T. Brown,  E. F. C. Byrd,  A. K. Chakraborty,  C.-L. Cheng,  
 Siu Hung Chien,  D. M. Chipman,  D. L. Crittenden,  H. Dachsel,  
 R. J. Doerksen,  A. D. Dutoi,  L. Fusti-Molnar,  W. A. Goddard III,  
 A. Golubeva-Zadorozhnaya,  S. R. Gwaltney,  G. Hawkins,  A. Heyden,  
 S. Hirata,  G. Kedziora,  F. J. Keil,  C. Kelley,  Jihan Kim,  R. A. King,  
 R. Z. Khaliullin,  P. P. Korambath,  W. Kurlancheek,  A. M. Lee,  M. S. Lee,  
 S. V. Levchenko,  Ching Yeh Lin,  D. Liotard,  R. C. Lochan,  I. Lotan,  
 P. E. Maslen,  N. Nair,  D. P. O'Neill,  D. Neuhauser,  E. Neuscamman,  
 C. M. Oana,  R. Olson,  B. Peters,  R. Peverati,  P. A. Pieniazek,  
 Y. M. Rhee,  J. Ritchie,  M. A. Rohrdanz,  E. Rosta,  N. J. Russ,  
 H. F. Schaefer III,  N. E. Schultz,  N. Shenvi,  A. C. Simmonett,  A. Sodt,  
 D. Stuck,  K. S. Thanthiriwatte,  V. Vanovschi,  Tao Wang,  A. Warshel,  
 C. F. Williams,  Q. Wu,  X. Xu,  W. Zhang

 Please cite Q-Chem as follows:
 Y. Shao et al., Mol. Phys. 113, 184-215 (2015)
 DOI: 10.1080/00268976.2014.952696

 Q-Chem 5.2.1 for Intel X86 EM64T Linux

 Parts of Q-Chem use Armadillo 8.300.2 (Tropical Shenanigans).
 http://arma.sourceforge.net/

 Q-Chem begins on Fri Feb  4 12:17:30 2022  

Host: 
0

     Scratch files written to /gpfs/fs0/scratch/a/aspuru/rhickman/descriptor_computation/qchem203596//
 Jul1719 |scratch|qcdevops|jenkins|workspace|build_RNUM -1
Processing $rem in /scinet/niagara/software/commercial/qc52/config/preferences:
	 MEM_TOTAL  4000 
NAlpha2: 174
NElect   174
Mult     1

Checking the input file for inconsistencies... 	...done.

--------------------------------------------------------------
User input:
--------------------------------------------------------------
$molecule
0 1
C        -4.19135399210000    2.55257915410000   -1.00151894260000
C        -4.23762543660000    1.45259515270000    0.05826919250000
C        -5.41666394020000    0.51209609200000   -0.19377086030000
O        -3.08077527690000    0.59000287310000   -0.06007300230000
C        -1.84632071280000    1.07507636960000    0.11316938830000
N        -0.92474046210000    0.05706269400000   -0.00714601210000
C         0.45720813660000    0.30628890570000   -0.07153600170000
C         1.34429735940000   -0.63624937390000    0.44863502000000
C         2.70610319620000   -0.43340655330000    0.38756032580000
C         3.22954968230000    0.72417139830000   -0.19267086770000
C         4.65105235920000    1.00598060150000   -0.28789567200000
C         5.67007767130000    0.26048789880000    0.11424427790000
F         5.63403529620000   -0.93081839930000    0.70197488650000
F         6.94340282670000    0.62890399500000   -0.02991448290000
C         2.33263169720000    1.66236119100000   -0.70917328990000
C         0.96992793500000    1.46088086510000   -0.65780846120000
C        -1.36111674500000   -1.29453689970000   -0.06522348850000
C        -0.99677295200000   -2.08218001740000   -1.15028544420000
C        -1.41026148250000   -3.40028023690000   -1.21448157970000
C        -2.18935892370000   -3.93626596700000   -0.20283953220000
C        -2.54808756740000   -3.15163394160000    0.88058171540000
C        -2.13182484220000   -1.83522860480000    0.95637588480000
O        -1.55670724470000    2.22406148200000    0.33573372720000
C        -4.31519710300000    2.04651162990000    1.46420532280000
H        -4.08127515250000    2.11251246100000   -1.99050889960000
H        -3.35338430630000    3.21881369530000   -0.81637617680000
H        -5.11274739590000    3.12724162040000   -0.97186087790000
H        -5.33451567200000    0.07045830810000   -1.18331161020000
H        -6.35142190540000    1.06004153640000   -0.12359990870000
H        -5.41644256980000   -0.29001867020000    0.53960624480000
H         0.95827762250000   -1.53396889620000    0.90788368810000
H         3.36135195260000   -1.18086035910000    0.80329738920000
H         4.92545028750000    1.94568530000000   -0.74544853690000
H         2.71383188170000    2.56333783620000   -1.16672798070000
H         0.30173388960000    2.20196326080000   -1.06299449580000
H        -0.38926770780000   -1.65634471440000   -1.93523045180000
H        -1.12696724720000   -4.00871660590000   -2.06028009520000
H        -2.51419369070000   -4.96435076340000   -0.25709049260000
H        -3.14856165850000   -3.56906583450000    1.67519538970000
H        -2.40017423670000   -1.22224914750000    1.80335544120000
H        -5.22768235690000    2.62718889330000    1.56518041290000
H        -3.46257527500000    2.69478171210000    1.64704558960000
H        -4.32035433620000    1.25154684100000    2.20720162950000
$end

$rem
BASIS = 6-31G*
GUI = 2
METHOD = B3LYP
PRINT_ORBITALS false
MOLDEN_FORMAT false
--------------------------------------------------------------
 ----------------------------------------------------------------
             Standard Nuclear Orientation (Angstroms)
    I     Atom           X                Y                Z
 ----------------------------------------------------------------
    1      C      -4.0562161730    -2.5121328826     1.0047529274
    2      C      -4.0985662059    -1.4086584973    -0.0515649683
    3      C      -5.2696500903    -0.4602844067     0.2079414564
    4      O      -2.9349427183    -0.5549481882     0.0647608468
    5      C      -1.7047830230    -1.0485550111    -0.1148128767
    6      N      -0.7752697931    -0.0377056554     0.0048806200
    7      C       0.6050503467    -0.2972704120     0.0630540989
    8      C       1.4969954594     0.6402842444    -0.4578189873
    9      C       2.8575017966     0.4272593659    -0.4027429234
   10      C       3.3746974479    -0.7358715949     0.1719623942
   11      C       4.7944519822    -1.0284015829     0.2607166559
   12      C       5.8173435375    -0.2892103328    -0.1432358880
   13      F       5.7877536723     0.9040895977    -0.7272707609
   14      F       7.0884811590    -0.6674029233    -0.0052191089
   15      C       2.4729414633    -1.6689946660     0.6892188005
   16      C       1.1115654534    -1.4573548245     0.6438519843
   17      C      -1.2014562272     1.3168827733     0.0687087286
   18      C      -0.8270550799     2.0985632715     1.1546585008
   19      C      -1.2305769658     3.4194668409     1.2244148282
   20      C      -2.0096880568     3.9641999397     0.2174665093
   21      C      -2.3784456302     3.1854842547    -0.8668558546
   22      C      -1.9721828593     1.8662899899    -0.9482160177
   23      O      -1.4245112521    -2.1989627574    -0.3419414439
   24      C      -4.1860435933    -1.9977609546    -1.4589442879
   25      H      -3.9390072286    -2.0758610938     1.9946045173
   26      H      -3.2239075126    -3.1839463885     0.8143102609
   27      H      -4.9819230165    -3.0799188312     0.9770344866
   28      H      -5.1803570138    -0.0222380321     1.1984591423
   29      H      -6.2086840115    -1.0011342310     0.1398430829
   30      H      -5.2664150840     0.3440075538    -0.5230401412
   31      H       1.1157861306     1.5421917164    -0.9128610476
   32      H       3.5165903391     1.1711251102    -0.8188456488
   33      H       5.0637277586    -1.9714677505     0.7143801076
   34      H       2.8493007670    -2.5741186590     1.1425763003
   35      H       0.4395373966    -2.1947225430     1.0494740507
   36      H      -0.2196126233     1.6659190968     1.9359200907
   37      H      -0.9394837304     4.0232607733     2.0708917524
   38      H      -2.3267325488     4.9944757919     0.2760634334
   39      H      -2.9789571011     3.6097026859    -1.6578388548
   40      H      -2.2483698575     1.2578468654    -1.7959466871
   41      H      -5.1031677779    -2.5714126205    -1.5580320663
   42      H      -3.3389420383    -2.6517251334    -1.6470890525
   43      H      -4.1882775074    -1.2005503171    -2.1995449452
 ----------------------------------------------------------------
 Molecular Point Group                 C1    NOp =  1
 Largest Abelian Subgroup              C1    NOp =  1
 Nuclear Repulsion Energy =        2019.22428248 hartrees
 There are       87 alpha and       87 beta electrons
 Requested basis set is 6-31G(d)
 There are 134 shells and 398 basis functions

 Total QAlloc Memory Limit   4000 MB
 Mega-Array Size       188 MB
 MEM_STATIC part       192 MB
 A cutoff of  1.0D-08 yielded   4279 shell pairs
 There are     40183 function pairs
 Smallest overlap matrix eigenvalue = 3.66E-04

 Scale SEOQF with 1.000000e-02/1.000000e-01/1.000000e-01

 Standard Electronic Orientation quadrupole field applied
 Nucleus-field energy     =     0.0000000389 hartrees
 Guess from superposition of atomic densities
 Warning:  Energy on first SCF cycle will be non-variational
 SAD guess density has 174.000000 electrons

 -----------------------------------------------------------------------
  General SCF calculation program by
  Eric Jon Sundstrom, Paul Horn, Yuezhi Mao, Dmitri Zuev, Alec White,
  David Stuck, Shaama M.S., Shane Yost, Joonho Lee, David Small,
  Daniel Levine, Susi Lehtola, Hugh Burton, Evgeny Epifanovsky,
  Bang C. Huynh
 -----------------------------------------------------------------------
 Exchange:     0.2000 Hartree-Fock + 0.0800 Slater + 0.7200 B88
 Correlation:  0.1900 VWN1RPA + 0.8100 LYP
 Using SG-1 standard quadrature grid
 A restricted SCF calculation will be
 performed using DIIS
 SCF converges when DIIS error is below 1.0e-05
 ---------------------------------------
  Cycle       Energy         DIIS error
 ---------------------------------------
    1   -1145.9619091984      4.08e-02  
    2   -1139.8813336560      4.94e-03  
    3   -1139.3920203233      7.37e-03  
    4   -1140.2839446334      1.83e-03  
    5   -1140.3395439453      4.96e-04  
    6   -1140.3430197065      2.31e-04  
    7   -1140.3440317192      5.58e-05  
    8   -1140.3440873698      2.18e-05  
    9   -1140.3440961215      5.72e-06  Convergence criterion met
 ---------------------------------------
 SCF time:   CPU 133.53s  wall 134.00s 
 SCF   energy in the final basis set =    -1140.3440961215
 Total energy in the final basis set =    -1140.3440961215
 
 --------------------------------------------------------------
 
                    Orbital Energies (a.u.)
 --------------------------------------------------------------
 
 Alpha MOs
 -- Occupied --
-24.7398 -24.7291 -19.1837 -19.1217 -14.3780 -10.3508 -10.3355 -10.2550
-10.2303 -10.2290 -10.1994 -10.1985 -10.1934 -10.1930 -10.1926 -10.1922
-10.1910 -10.1868 -10.1860 -10.1852 -10.1827 -10.1768 -10.1715 -10.1704
 -1.2802  -1.2194  -1.1124  -1.0203  -0.9687  -0.8661  -0.8549  -0.8158
 -0.7984  -0.7564  -0.7559  -0.7485  -0.7305  -0.6969  -0.6937  -0.6662
 -0.6371  -0.6250  -0.6164  -0.6098  -0.5908  -0.5670  -0.5567  -0.5387
 -0.5249  -0.5140  -0.5092  -0.4952  -0.4862  -0.4738  -0.4655  -0.4592
 -0.4523  -0.4497  -0.4421  -0.4380  -0.4363  -0.4355  -0.4286  -0.4245
 -0.4166  -0.4136  -0.4074  -0.3963  -0.3910  -0.3789  -0.3770  -0.3750
 -0.3688  -0.3630  -0.3567  -0.3564  -0.3497  -0.3454  -0.3331  -0.3179
 -0.2938  -0.2830  -0.2692  -0.2587  -0.2496  -0.2437  -0.1992
 -- Virtual --
 -0.0261  -0.0093  -0.0069   0.0085   0.0458   0.0789   0.0839   0.0911
  0.0939   0.1074   0.1248   0.1315   0.1463   0.1470   0.1531   0.1567
  0.1608   0.1628   0.1674   0.1719   0.1800   0.1838   0.1876   0.1898
  0.1948   0.1958   0.1998   0.2044   0.2097   0.2137   0.2284   0.2311
  0.2384   0.2565   0.2620   0.2716   0.2876   0.3012   0.3047   0.3207
  0.3233   0.3320   0.3535   0.3611   0.3891   0.4105   0.4219   0.4399
  0.4534   0.4835   0.4901   0.4978   0.5022   0.5028   0.5168   0.5194
  0.5222   0.5313   0.5396   0.5442   0.5525   0.5544   0.5650   0.5668
  0.5714   0.5769   0.5840   0.5862   0.5925   0.5945   0.5983   0.5993
  0.6064   0.6093   0.6122   0.6147   0.6225   0.6249   0.6305   0.6412
  0.6473   0.6600   0.6675   0.6824   0.6909   0.6939   0.7089   0.7207
  0.7243   0.7286   0.7469   0.7660   0.7823   0.7971   0.8049   0.8181
  0.8287   0.8322   0.8361   0.8407   0.8412   0.8458   0.8521   0.8558
  0.8648   0.8737   0.8826   0.8935   0.8999   0.9037   0.9088   0.9161
  0.9199   0.9275   0.9367   0.9450   0.9485   0.9588   0.9610   0.9687
  0.9851   0.9898   0.9944   0.9992   1.0023   1.0156   1.0239   1.0457
  1.0668   1.0888   1.1060   1.1133   1.1218   1.1324   1.1409   1.1547
  1.1642   1.1715   1.1789   1.1800   1.1894   1.2083   1.2172   1.2245
  1.2430   1.2473   1.2732   1.2817   1.2889   1.3042   1.3316   1.3463
  1.3576   1.3688   1.3971   1.4056   1.4092   1.4230   1.4287   1.4432
  1.4492   1.4576   1.4607   1.4719   1.4749   1.4794   1.4906   1.4946
  1.5056   1.5070   1.5155   1.5426   1.5470   1.5794   1.5949   1.6209
  1.6585   1.6891   1.7082   1.7253   1.7291   1.7398   1.7450   1.7786
  1.7869   1.7908   1.8002   1.8068   1.8134   1.8314   1.8408   1.8429
  1.8469   1.8480   1.8601   1.8645   1.8759   1.8798   1.8914   1.9119
  1.9150   1.9235   1.9328   1.9483   1.9599   1.9694   1.9761   1.9874
  2.0006   2.0106   2.0179   2.0261   2.0370   2.0527   2.0696   2.0860
  2.0884   2.1027   2.1181   2.1268   2.1418   2.1435   2.1592   2.1659
  2.1697   2.1741   2.1852   2.1881   2.2100   2.2180   2.2365   2.2438
  2.2454   2.2656   2.2700   2.2767   2.2794   2.3045   2.3068   2.3153
  2.3229   2.3306   2.3528   2.3608   2.3736   2.4297   2.4432   2.4967
  2.5060   2.5123   2.5275   2.5339   2.5658   2.5861   2.6000   2.6108
  2.6339   2.6397   2.6556   2.6680   2.6884   2.7030   2.7087   2.7194
  2.7385   2.7473   2.7548   2.7670   2.7970   2.8105   2.8200   2.8341
  2.8685   2.9063   2.9267   2.9438   2.9617   3.0035   3.0350   3.0668
  3.1415   3.1642   3.2752   3.2845   3.3605   3.4591   3.4940   4.0831
  4.0904   4.1005   4.1206   4.1246   4.1333   4.1634   4.1921   4.2202
  4.2673   4.2930   4.3096   4.3134   4.3309   4.3528   4.4217   4.4469
  4.4661   4.5589   4.7109   4.7363   4.7639   4.8333   5.2891
 --------------------------------------------------------------
 
          Ground-State Mulliken Net Atomic Charges

     Atom                 Charge (a.u.)
  ----------------------------------------
      1 C                    -0.467971
      2 C                     0.308223
      3 C                    -0.449257
      4 O                    -0.509239
      5 C                     0.797854
      6 N                    -0.650575
      7 C                     0.313628
      8 C                    -0.169931
      9 C                    -0.207221
     10 C                     0.203571
     11 C                    -0.298894
     12 C                     0.539250
     13 F                    -0.237176
     14 F                    -0.250993
     15 C                    -0.214346
     16 C                    -0.145122
     17 C                     0.261479
     18 C                    -0.132273
     19 C                    -0.142421
     20 C                    -0.119737
     21 C                    -0.146801
     22 C                    -0.123756
     23 O                    -0.511932
     24 C                    -0.469872
     25 H                     0.146633
     26 H                     0.187671
     27 H                     0.142978
     28 H                     0.156351
     29 H                     0.146638
     30 H                     0.153234
     31 H                     0.148514
     32 H                     0.139428
     33 H                     0.158285
     34 H                     0.129644
     35 H                     0.157909
     36 H                     0.144552
     37 H                     0.134228
     38 H                     0.130256
     39 H                     0.132540
     40 H                     0.136939
     41 H                     0.144628
     42 H                     0.190089
     43 H                     0.142997
  ----------------------------------------
  Sum of atomic charges =     0.000000

 -----------------------------------------------------------------
                    Cartesian Multipole Moments
 -----------------------------------------------------------------
    Charge (ESU x 10^10)
                 0.0000
    Dipole Moment (Debye)
         X      -2.6017      Y       1.3916      Z       0.7049
       Tot       3.0335
    Quadrupole Moments (Debye-Ang)
        XX    -134.2911     XY      -2.7138     YY    -132.0441
        XZ       4.1606     YZ      -3.1538     ZZ    -134.2533
    Octopole Moments (Debye-Ang^2)
       XXX     -54.8204    XXY     -32.2716    XYY      14.8597
       YYY      22.9847    XXZ      -5.4412    XYZ       0.4608
       YYZ      11.4031    XZZ      16.9497    YZZ       3.3590
       ZZZ      -6.4522
    Hexadecapole Moments (Debye-Ang^3)
      XXXX  -10085.4631   XXXY     117.3780   XXYY   -2001.9919
      XYYY     -76.8308   YYYY   -2766.9477   XXXZ      44.8366
      XXYZ     -42.8023   XYYZ      19.1082   YYYZ       3.2850
      XXZZ   -1710.0809   XYZZ      -1.4981   YYZZ    -558.6734
      XZZZ     -29.5361   YZZZ       2.3778   ZZZZ    -579.1036
 -----------------------------------------------------------------
Archival summary:
1\1\nia0001.scinet.local\SP\ProcedureUnspecified\6-31G*\2211919\rhickman\FriFeb412:19:442022FriFeb412:19:442022\0\\#,ProcedureUnspecified,6-31G*,\\0,1\O\C,1,1.33761\O,2,1.20564,1,126.242\N,2,1.37845,1,109.748,3,-179.692,0\C,4,1.40572,2,122.027,1,170.269,0\C,5,1.39272,4,121.883,2,-32.1534,0\H,6,1.07697,5,120.028,4,1.07869,0\C,6,1.37848,5,120.052,4,-179.52,0\H,8,1.08001,6,119.12,5,-179.963,0\C,5,1.39495,4,119.229,2,148.772,0\H,10,1.07973,5,119.54,4,-1.05995,0\C,10,1.37818,5,120.824,4,179.164,0\H,12,1.07744,10,118.798,5,179.741,0\C,12,1.39666,10,120.712,5,0.244196,0\C,4,1.42148,2,120.036,1,-9.95215,0\C,15,1.38925,4,120.685,2,-57.2196,0\H,16,1.07941,15,119.598,4,-0.1,0\C,16,1.38273,15,119.817,4,179.912,0\H,18,1.07992,16,119.673,15,-179.893,0\C,18,1.38497,16,120.283,15,0.611702,0\H,20,1.07955,18,120.06,16,179.841,0\C,20,1.38481,18,119.862,16,0.0112616,0\H,22,1.07973,20,120.117,18,179.908,0\C,22,1.38293,20,120.212,18,-0.41332,0\H,24,1.08006,22,120.679,20,-179.979,0\C,1,1.44789,2,120.713,3,-2.22629,0\C,14,1.45229,12,123.704,10,179.803,0\H,27,1.0806,14,116.427,12,-179.01,0\C,27,1.3251,14,128.583,12,0.971011,0\F,29,1.32889,27,128.149,14,0.126369,0\F,29,1.33337,27,123.102,14,179.941,0\C,26,1.52815,1,110.363,2,62.1225,0\H,32,1.08632,26,109.643,1,173.998,0\H,32,1.08643,26,110.278,1,-66.0065,0\H,32,1.08806,26,110.017,1,54.2071,0\C,26,1.52821,1,110.321,2,-61.0199,0\H,36,1.08628,26,109.627,1,-175.516,0\H,36,1.08658,26,110.294,1,64.5314,0\H,36,1.08814,26,110.151,1,-55.7641,0\C,26,1.52912,1,103.661,2,-179.431,0\H,40,1.08579,26,110.045,1,179.721,0\H,40,1.08673,26,109.984,1,-59.9243,0\H,40,1.08684,26,110.032,1,59.3359,0\\\@

 Total job time:  134.32s(wall), 133.96s(cpu) 
 Fri Feb  4 12:19:44 2022

        *************************************************************
        *                                                           *
        *  Thank you very much for using Q-Chem.  Have a nice day.  *
        *                                                           *
        *************************************************************


