23
 energy: -33.953539308110 gnorm: 0.000071203127 xtb: 6.4.1 (23d549d)
C         3.89141474260000   -1.30957707750000   -0.05550666360000
C         3.08300812080000   -0.26020004460000    0.03167407430000
C         1.62741515740000   -0.28276720150000    0.02201236910000
C         0.87039898530000   -1.45044134950000   -0.01346241830000
N        -0.45160606550000   -1.46689254310000   -0.01833510700000
C        -1.11073651160000   -0.32176511330000    0.01006627980000
O        -2.45449855210000   -0.35720827180000   -0.00264626760000
C        -3.04361116350000   -1.64186861580000   -0.04065522910000
C        -0.47004919100000    0.93975470390000    0.04994753700000
C        -1.27236386560000    2.15403069230000    0.09061288710000
C        -0.82731030350000    3.38880575240000   -0.10800414110000
C         0.91549970050000    0.92098991180000    0.05966060770000
H         4.96138030350000   -1.19261622680000   -0.04108455330000
H         3.52766601690000   -2.31838194270000   -0.14589998430000
H         3.51385636010000    0.73078757280000    0.11504844050000
H         1.33119002610000   -2.42772489780000   -0.03226538750000
H        -4.11916739200000   -1.47709775630000   -0.04193841320000
H        -2.74781382840000   -2.22807894200000    0.83205169370000
H        -2.73873381550000   -2.17922457070000   -0.94117737250000
H        -2.32240013580000    1.98550788090000    0.28567726780000
H         0.20285343560000    3.60884728830000   -0.33185723390000
H        -1.49040009700000    4.23528326610000   -0.06173165470000
H         1.46081948260000    1.85243474280000    0.10769510950000
