
Running Job 1 of 1 fragments/C130/conf-2/spe_input.inp
qchem fragments/C130/conf-2/spe_input.inp_34339.0 /gpfs/fs0/scratch/a/aspuru/rhickman/descriptor_computation/qchem34339/ 0
/scinet/niagara/software/commercial/qc52/exe/qcprog.exe_s fragments/C130/conf-2/spe_input.inp_34339.0 /gpfs/fs0/scratch/a/aspuru/rhickman/descriptor_computation/qchem34339/
                  Welcome to Q-Chem
     A Quantum Leap Into The Future Of Chemistry


 Q-Chem 5.2, Q-Chem, Inc., Pleasanton, CA (2019)

 License issued to: SRG Alan Aspuru-Guzik, University of Toronto

 Yihan Shao,  Zhengting Gan,  E. Epifanovsky,  A. T. B. Gilbert,  M. Wormit,  
 J. Kussmann,  A. W. Lange,  A. Behn,  Jia Deng,  Xintian Feng,  D. Ghosh,  
 M. Goldey,  P. R. Horn,  L. D. Jacobson,  I. Kaliman,  T. Kus,  A. Landau,  
 Jie Liu,  E. I. Proynov,  R. M. Richard,  R. P. Steele,  E. J. Sundstrom,  
 H. L. Woodcock III,  P. M. Zimmerman,  D. Zuev,  B. Albrecht,  E. Alguire,  
 S. A. Baeppler,  D. Barton,  Z. Benda,  Y. A. Bernard,  E. J. Berquist,  
 K. B. Bravaya,  H. Burton,  D. Casanova,  Chun-Min Chang,  Yunqing Chen,  
 A. Chien,  K. D. Closser,  M. P. Coons,  S. Coriani,  S. Dasgupta,  
 A. L. Dempwolff,  M. Diedenhofen,  Hainam Do,  R. G. Edgar,  Po-Tung Fang,  
 S. Faraji,  S. Fatehi,  Qingguo Feng,  K. D. Fenk,  J. Fosso-Tande,  
 J. Gayvert,  Qinghui Ge,  A. Ghysels,  G. Gidofalvi,  J. Gomes,  
 J. Gonthier,  A. Gunina,  D. Hait,  M. W. D. Hanson-Heine,  
 P. H. P. Harbach,  A. W. Hauser,  M. F. Herbst,  J. E. Herr,  
 E. G. Hohenstein,  Z. C. Holden,  Kerwin Hui,  B. C. Huynh,  T.-C. Jagau,  
 Hyunjun Ji,  B. Kaduk,  K. Khistyaev,  Jaehoon Kim,  P. Klunzinger,  K. Koh,  
 D. Kosenkov,  L. Koulias,  T. Kowalczyk,  C. M. Krauter,  A. Kunitsa,  
 Ka Un Lao,  A. Laurent,  K. V. Lawler,  Joonho Lee,  D. Lefrancois,  
 S. Lehtola,  D. S. Levine,  Yi-Pei Li,  You-Sheng Lin,  Fenglai Liu,  
 E. Livshits,  A. Luenser,  P. Manohar,  E. Mansoor,  S. F. Manzer,  
 Shan-Ping Mao,  Yuezhi Mao,  N. Mardirossian,  A. V. Marenich,  
 T. Markovich,  L. A. Martinez-Martinez,  S. A. Maurer,  N. J. Mayhall,  
 S. C. McKenzie,  J.-M. Mewes,  P. Morgante,  A. F. Morrison,  
 J. W. Mullinax,  K. Nanda,  T. S. Nguyen-Beck,  R. Olivares-Amaya,  
 J. A. Parkhill,  Zheng Pei,  T. M. Perrine,  F. Plasser,  P. Pokhilko,  
 S. Prager,  A. Prociuk,  E. Ramos,  D. R. Rehn,  F. Rob,  M. Scheurer,  
 M. Schneider,  N. Sergueev,  S. M. Sharada,  S. Sharma,  D. W. Small,  
 T. Stauch,  T. Stein,  Yu-Chuan Su,  A. J. W. Thom,  A. Tkatchenko,  
 T. Tsuchimochi,  N. M. Tubman,  L. Vogt,  M. L. Vidal,  O. Vydrov,  
 M. A. Watson,  J. Wenzel,  M. de Wergifosse,  T. A. Wesolowski,  A. White,  
 J. Witte,  A. Yamada,  Jun Yang,  K. Yao,  S. Yeganeh,  S. R. Yost,  
 Zhi-Qiang You,  A. Zech,  Igor Ying Zhang,  Xing Zhang,  Yan Zhao,  
 Ying Zhu,  B. R. Brooks,  G. K. L. Chan,  C. J. Cramer,  M. S. Gordon,  
 W. J. Hehre,  A. Klamt,  M. W. Schmidt,  C. D. Sherrill,  D. G. Truhlar,  
 A. Aspuru-Guzik,  R. Baer,  A. T. Bell,  N. A. Besley,  Jeng-Da Chai,  
 A. E. DePrince, III,  R. A. DiStasio Jr.,  A. Dreuw,  B. D. Dunietz,  
 T. R. Furlani,  Chao-Ping Hsu,  Yousung Jung,  Jing Kong,  D. S. Lambrecht,  
 WanZhen Liang,  C. Ochsenfeld,  V. A. Rassolov,  L. V. Slipchenko,  
 J. E. Subotnik,  T. Van Voorhis,  J. M. Herbert,  A. I. Krylov,  
 P. M. W. Gill,  M. Head-Gordon

 Contributors to earlier versions of Q-Chem not listed above: 
 R. D. Adamson,  B. Austin,  J. Baker,  G. J. O. Beran,  K. Brandhorst,  
 S. T. Brown,  E. F. C. Byrd,  A. K. Chakraborty,  C.-L. Cheng,  
 Siu Hung Chien,  D. M. Chipman,  D. L. Crittenden,  H. Dachsel,  
 R. J. Doerksen,  A. D. Dutoi,  L. Fusti-Molnar,  W. A. Goddard III,  
 A. Golubeva-Zadorozhnaya,  S. R. Gwaltney,  G. Hawkins,  A. Heyden,  
 S. Hirata,  G. Kedziora,  F. J. Keil,  C. Kelley,  Jihan Kim,  R. A. King,  
 R. Z. Khaliullin,  P. P. Korambath,  W. Kurlancheek,  A. M. Lee,  M. S. Lee,  
 S. V. Levchenko,  Ching Yeh Lin,  D. Liotard,  R. C. Lochan,  I. Lotan,  
 P. E. Maslen,  N. Nair,  D. P. O'Neill,  D. Neuhauser,  E. Neuscamman,  
 C. M. Oana,  R. Olson,  B. Peters,  R. Peverati,  P. A. Pieniazek,  
 Y. M. Rhee,  J. Ritchie,  M. A. Rohrdanz,  E. Rosta,  N. J. Russ,  
 H. F. Schaefer III,  N. E. Schultz,  N. Shenvi,  A. C. Simmonett,  A. Sodt,  
 D. Stuck,  K. S. Thanthiriwatte,  V. Vanovschi,  Tao Wang,  A. Warshel,  
 C. F. Williams,  Q. Wu,  X. Xu,  W. Zhang

 Please cite Q-Chem as follows:
 Y. Shao et al., Mol. Phys. 113, 184-215 (2015)
 DOI: 10.1080/00268976.2014.952696

 Q-Chem 5.2.1 for Intel X86 EM64T Linux

 Parts of Q-Chem use Armadillo 8.300.2 (Tropical Shenanigans).
 http://arma.sourceforge.net/

 Q-Chem begins on Mon Feb  7 12:54:14 2022  

Host: 
0

     Scratch files written to /gpfs/fs0/scratch/a/aspuru/rhickman/descriptor_computation/qchem34339//
 Jul1719 |scratch|qcdevops|jenkins|workspace|build_RNUM -1
Processing $rem in /scinet/niagara/software/commercial/qc52/config/preferences:
	 MEM_TOTAL  4000 
NAlpha2: 180
NElect   180
Mult     1

Checking the input file for inconsistencies... 	...done.

--------------------------------------------------------------
User input:
--------------------------------------------------------------
$molecule
0 1
C        -6.42928346510000   -1.50336839550000    0.01330409940000
C        -5.22811056450000   -1.77676695650000    0.51028550710000
C        -3.96532980920000   -1.16644325180000    0.12398343270000
C        -3.85214457670000   -0.17834041820000   -0.85358947850000
C        -2.62877742660000    0.36793589970000   -1.18235287420000
C        -1.45768380730000   -0.02543886830000   -0.53183185610000
C        -1.57100719500000   -1.02501298360000    0.43851061860000
C        -2.79154885090000   -1.58649622270000    0.75222824410000
S        -0.13687219930000   -1.55755252750000    1.33579732010000
C         1.07755019890000   -1.30417149190000    0.06667040550000
C         2.19418409780000   -2.11379298630000    0.05940698730000
C         3.21660516820000   -1.91844392190000   -0.86999426940000
C         4.42570043370000   -2.72654994650000   -0.90391110050000
C         4.74145177120000   -3.72163924010000   -0.08265963510000
C         3.04990571520000   -0.89361441770000   -1.80162645850000
C         1.92395756940000   -0.09615487970000   -1.80616700650000
C         0.91146797640000   -0.27239692700000   -0.86230976790000
N        -0.22380124950000    0.53291304130000   -0.84855711580000
C        -0.13790665250000    1.90217329310000   -1.30940689510000
C         0.93390280810000    2.67781422800000   -0.53533162840000
C         0.61619685820000    2.72868345470000    0.95799026600000
C         1.76495323090000    3.28898943760000    1.79623950590000
C         2.16220118530000    4.72868775030000    1.46597245790000
C         1.04062283840000    5.73246356240000    1.70596108270000
H        -7.30885334060000   -2.01383707280000    0.36588299490000
H        -6.58929744990000   -0.76953589970000   -0.75776485240000
H        -5.14187035670000   -2.52874269500000    1.28527554330000
H        -4.72976227980000    0.16570989680000   -1.37751914880000
H        -2.58058314180000    1.10757710340000   -1.96689382150000
H        -2.82871307300000   -2.34900542770000    1.51634918930000
H         2.26869839730000   -2.88719252150000    0.80685370140000
H         5.11793770500000   -2.46026441690000   -1.69394671940000
H         4.10264775840000   -4.03730409810000    0.72387456690000
H         5.66580440170000   -4.26260116060000   -0.19031711760000
H         3.81766794630000   -0.71963327910000   -2.54203055490000
H         1.82923128990000    0.67248089520000   -2.55675287240000
H        -1.10272596740000    2.37448568300000   -1.11767140420000
H         0.05879825280000    1.95583009700000   -2.38823914090000
H         0.97963999470000    3.68693405770000   -0.94712964390000
H         1.90884588610000    2.20869503800000   -0.67765079580000
H         0.41046280010000    1.71490715830000    1.30913156680000
H        -0.28773284160000    3.31851506190000    1.12060843730000
H         2.63931468190000    2.64675082590000    1.66193372960000
H         1.47906805110000    3.23787563250000    2.84955674060000
H         2.49349900920000    4.79235186000000    0.42800242630000
H         3.01468074970000    4.99661730210000    2.09492365110000
H         0.21325162600000    5.56828834230000    1.02041583530000
H         1.40432597590000    6.74695599430000    1.55821147420000
H         0.66639181730000    5.64759636880000    2.72392700970000
$end

$rem
BASIS = 6-31G*
GUI = 2
METHOD = B3LYP
PRINT_ORBITALS false
MOLDEN_FORMAT false
--------------------------------------------------------------
 ----------------------------------------------------------------
             Standard Nuclear Orientation (Angstroms)
    I     Atom           X                Y                Z
 ----------------------------------------------------------------
    1      C      -6.6391734042     0.1716080428     0.0077440605
    2      C      -5.5275041279     0.5947258505    -0.5836241587
    3      C      -4.1609362218     0.3428278494    -0.1530674166
    4      C      -3.8327207059    -0.4044872714     0.9776852481
    5      C      -2.5187238388    -0.6135885184     1.3421290317
    6      C      -1.4630925793    -0.1095022722     0.5799471186
    7      C      -1.7938484162     0.6501238512    -0.5457188396
    8      C      -3.1082381724     0.8771703308    -0.8981866748
    9      S      -0.5126308089     1.2978861971    -1.5870402898
   10      C       0.7361514551     1.5398534094    -0.3494209779
   11      C       1.6538867175     2.5524527196    -0.5360103956
   12      C       2.7004838809     2.7480608505     0.3660232150
   13      C       3.7090386500     3.7833960563     0.2017206013
   14      C       3.7993596291     4.6556119920    -0.7959953207
   15      C       2.7628448848     1.8985685645     1.4707750954
   16      C       1.8334878146     0.8978597993     1.6672412800
   17      C       0.8005829598     0.6833339909     0.7539236133
   18      N      -0.1363205407    -0.3302026969     0.9342142375
   19      C       0.2433523814    -1.5436770830     1.6255625032
   20      C       1.4511313211    -2.2060036441     0.9531188567
   21      C       1.1418955884    -2.5937087816    -0.4917316605
   22      C       2.3783813939    -3.0447753162    -1.2688337262
   23      C       3.0764078536    -4.2846527411    -0.7075169487
   24      C       2.1938328027    -5.5272712978    -0.7151857977
   25      H      -7.6098301437     0.4138363111    -0.3893507318
   26      H      -6.6335475985    -0.4262049608     0.9028696935
   27      H      -5.6091009210     1.1938315360    -1.4824727455
   28      H      -4.6130418182    -0.8229254526     1.5933915105
   29      H      -2.3083788710    -1.1709971739     2.2420995216
   30      H      -3.3125642139     1.4625801092    -1.7826235273
   31      H       1.5564349089     3.1747141783    -1.4110359006
   32      H       4.4473500467     3.8164022475     0.9942252228
   33      H       3.1025793847     4.6782072948    -1.6158727699
   34      H       4.5873609163     5.3882161599    -0.8276627034
   35      H       3.5548736873     2.0269902426     2.1947397042
   36      H       1.9101974592     0.2765222586     2.5454260302
   37      H      -0.5994060539    -2.2341245485     1.5642573670
   38      H       0.4540270570    -1.3573021418     2.6868501406
   39      H       1.7142559276    -3.0908207561     1.5343730578
   40      H       2.3041389705    -1.5255221776     0.9659441764
   41      H       0.7218781512    -1.7268013936    -1.0069267965
   42      H       0.3839339278    -3.3790203827    -0.5063845435
   43      H       3.0960692705    -2.2204605656    -1.2899459635
   44      H       2.0813010190    -3.2475826847    -2.3005471439
   45      H       3.4204327930    -4.0872087573     0.3092700830
   46      H       3.9623306276    -4.4785803708    -1.3171235176
   47      H       1.3549902839    -5.4174513258    -0.0327257515
   48      H       2.7669869319    -6.3989452318    -0.4069915239
   49      H       1.8034657851    -5.7096709771    -1.7141101565
 ----------------------------------------------------------------
 Molecular Point Group                 C1    NOp =  1
 Largest Abelian Subgroup              C1    NOp =  1
 Nuclear Repulsion Energy =        2126.82977122 hartrees
 There are       90 alpha and       90 beta electrons
 Requested basis set is 6-31G(d)
 There are 147 shells and 414 basis functions

 Total QAlloc Memory Limit   4000 MB
 Mega-Array Size       188 MB
 MEM_STATIC part       192 MB
 A cutoff of  1.0D-08 yielded   4861 shell pairs
 There are     42461 function pairs
 Smallest overlap matrix eigenvalue = 3.35E-04

 Scale SEOQF with 1.000000e-02/1.000000e-02/1.000000e-01

 Standard Electronic Orientation quadrupole field applied
 Nucleus-field energy     =    -0.0000000093 hartrees
 Guess from superposition of atomic densities
 Warning:  Energy on first SCF cycle will be non-variational
 SAD guess density has 180.000000 electrons

 -----------------------------------------------------------------------
  General SCF calculation program by
  Eric Jon Sundstrom, Paul Horn, Yuezhi Mao, Dmitri Zuev, Alec White,
  David Stuck, Shaama M.S., Shane Yost, Joonho Lee, David Small,
  Daniel Levine, Susi Lehtola, Hugh Burton, Evgeny Epifanovsky,
  Bang C. Huynh
 -----------------------------------------------------------------------
 Exchange:     0.2000 Hartree-Fock + 0.0800 Slater + 0.7200 B88
 Correlation:  0.1900 VWN1RPA + 0.8100 LYP
 Using SG-1 standard quadrature grid
 A restricted SCF calculation will be
 performed using DIIS
 SCF converges when DIIS error is below 1.0e-05
 ---------------------------------------
  Cycle       Energy         DIIS error
 ---------------------------------------
    1   -1312.1033119166      3.99e-02  
    2   -1305.9138477152      4.06e-03  
    3   -1305.7876199814      4.70e-03  
    4   -1306.2612072508      1.37e-03  
    5   -1306.3023180812      4.20e-04  
    6   -1306.3061353915      1.13e-04  
    7   -1306.3064078863      4.70e-05  
    8   -1306.3064570407      1.66e-05  
    9   -1306.3064633278      2.91e-06  Convergence criterion met
 ---------------------------------------
 SCF time:   CPU 143.60s  wall 144.00s 
 SCF   energy in the final basis set =    -1306.3064633278
 Total energy in the final basis set =    -1306.3064633278
 
 --------------------------------------------------------------
 
                    Orbital Energies (a.u.)
 --------------------------------------------------------------
 
 Alpha MOs
 -- Occupied --
-88.8874 -14.3669 -10.2348 -10.2346 -10.2258 -10.2189 -10.2171 -10.1927
-10.1919 -10.1910 -10.1908 -10.1906 -10.1905 -10.1890 -10.1882 -10.1881
-10.1877 -10.1820 -10.1763 -10.1758 -10.1731 -10.1711 -10.1708 -10.1677
 -7.9483  -5.9133  -5.9097  -5.9034  -0.9798  -0.8708  -0.8670  -0.8184
 -0.8055  -0.7979  -0.7766  -0.7662  -0.7571  -0.7346  -0.7243  -0.7103
 -0.6814  -0.6584  -0.6418  -0.6202  -0.6135  -0.5966  -0.5882  -0.5662
 -0.5551  -0.5447  -0.5360  -0.5156  -0.4926  -0.4828  -0.4751  -0.4675
 -0.4613  -0.4557  -0.4517  -0.4421  -0.4369  -0.4328  -0.4203  -0.4157
 -0.4124  -0.4049  -0.4027  -0.3927  -0.3891  -0.3850  -0.3789  -0.3731
 -0.3606  -0.3566  -0.3541  -0.3477  -0.3462  -0.3384  -0.3372  -0.3226
 -0.3168  -0.3127  -0.3082  -0.3013  -0.2981  -0.2624  -0.2592  -0.2241
 -0.2190  -0.1784
 -- Virtual --
 -0.0353  -0.0219  -0.0036  -0.0024   0.0336   0.0619   0.0676   0.0789
  0.0849   0.0992   0.1083   0.1136   0.1184   0.1208   0.1243   0.1317
  0.1399   0.1442   0.1490   0.1529   0.1589   0.1656   0.1702   0.1716
  0.1760   0.1780   0.1865   0.1882   0.1984   0.2028   0.2097   0.2107
  0.2150   0.2191   0.2253   0.2357   0.2377   0.2430   0.2453   0.2521
  0.2650   0.2771   0.2790   0.2922   0.3004   0.3081   0.3084   0.3257
  0.3299   0.3437   0.3540   0.3622   0.3766   0.3879   0.4020   0.4067
  0.4277   0.4426   0.4461   0.4576   0.4878   0.4965   0.5083   0.5091
  0.5168   0.5200   0.5221   0.5283   0.5414   0.5422   0.5472   0.5571
  0.5606   0.5635   0.5688   0.5726   0.5805   0.5845   0.5866   0.5920
  0.5980   0.6022   0.6043   0.6075   0.6154   0.6174   0.6228   0.6265
  0.6325   0.6387   0.6473   0.6509   0.6610   0.6696   0.6786   0.6829
  0.6918   0.6931   0.6965   0.7025   0.7122   0.7211   0.7305   0.7400
  0.7416   0.7718   0.7790   0.7940   0.7964   0.8084   0.8176   0.8269
  0.8307   0.8370   0.8492   0.8512   0.8603   0.8709   0.8722   0.8788
  0.8812   0.8870   0.8885   0.8917   0.8965   0.8987   0.9012   0.9061
  0.9163   0.9171   0.9377   0.9409   0.9490   0.9578   0.9603   0.9655
  0.9724   0.9751   0.9815   0.9882   0.9959   1.0012   1.0031   1.0155
  1.0219   1.0243   1.0303   1.0422   1.0481   1.0531   1.0665   1.0822
  1.0827   1.0920   1.0995   1.1150   1.1318   1.1403   1.1611   1.1701
  1.1939   1.2000   1.2113   1.2207   1.2481   1.2517   1.2741   1.2817
  1.2981   1.3124   1.3233   1.3263   1.3379   1.3557   1.3671   1.3932
  1.4170   1.4336   1.4496   1.4541   1.4622   1.4696   1.4718   1.4811
  1.4995   1.5067   1.5121   1.5196   1.5282   1.5313   1.5410   1.5575
  1.5862   1.5919   1.6160   1.6280   1.6572   1.6782   1.6800   1.6837
  1.6879   1.7141   1.7432   1.7740   1.7853   1.7974   1.8020   1.8052
  1.8253   1.8481   1.8559   1.8633   1.8801   1.8928   1.9041   1.9057
  1.9209   1.9304   1.9547   1.9619   1.9712   1.9760   1.9884   1.9908
  2.0018   2.0035   2.0203   2.0316   2.0333   2.0395   2.0477   2.0601
  2.0754   2.0838   2.1002   2.1259   2.1351   2.1382   2.1428   2.1553
  2.1583   2.1726   2.1784   2.2037   2.2153   2.2378   2.2489   2.2548
  2.2595   2.2697   2.2850   2.3118   2.3219   2.3230   2.3269   2.3298
  2.3390   2.3459   2.3866   2.3934   2.4002   2.4081   2.4363   2.4451
  2.4660   2.4991   2.5154   2.5261   2.5309   2.5552   2.5746   2.5825
  2.6033   2.6207   2.6296   2.6343   2.6548   2.6715   2.6835   2.6892
  2.6939   2.7162   2.7375   2.7421   2.7508   2.7943   2.8073   2.8278
  2.8624   2.8803   2.9060   2.9204   2.9744   2.9857   3.0755   3.1218
  3.2087   3.2796   3.4237   3.4589   3.9812   4.0914   4.0949   4.1186
  4.1277   4.1307   4.1356   4.1510   4.1705   4.1799   4.2031   4.2646
  4.2737   4.2868   4.3470   4.3569   4.3747   4.4397   4.4667   4.4991
  4.5265   4.5881   4.7497   4.7888
 --------------------------------------------------------------
 
          Ground-State Mulliken Net Atomic Charges

     Atom                 Charge (a.u.)
  ----------------------------------------
      1 C                    -0.357527
      2 C                    -0.113097
      3 C                     0.198240
      4 C                    -0.201173
      5 C                    -0.165519
      6 C                     0.315032
      7 C                    -0.111527
      8 C                    -0.262129
      9 S                     0.160252
     10 C                    -0.110853
     11 C                    -0.250161
     12 C                     0.202521
     13 C                    -0.117499
     14 C                    -0.355465
     15 C                    -0.218831
     16 C                    -0.161517
     17 C                     0.313683
     18 N                    -0.577818
     19 C                    -0.158939
     20 C                    -0.281949
     21 C                    -0.269781
     22 C                    -0.254102
     23 C                    -0.252702
     24 C                    -0.444060
     25 H                     0.142769
     26 H                     0.139363
     27 H                     0.126886
     28 H                     0.127919
     29 H                     0.135798
     30 H                     0.141587
     31 H                     0.141432
     32 H                     0.125011
     33 H                     0.142641
     34 H                     0.142975
     35 H                     0.129073
     36 H                     0.133376
     37 H                     0.160044
     38 H                     0.141962
     39 H                     0.138769
     40 H                     0.153374
     41 H                     0.167851
     42 H                     0.130660
     43 H                     0.131917
     44 H                     0.129401
     45 H                     0.132001
     46 H                     0.131425
     47 H                     0.142746
     48 H                     0.142063
     49 H                     0.143879
  ----------------------------------------
  Sum of atomic charges =     0.000000

 -----------------------------------------------------------------
                    Cartesian Multipole Moments
 -----------------------------------------------------------------
    Charge (ESU x 10^10)
                 0.0000
    Dipole Moment (Debye)
         X       0.5274      Y      -1.3261      Z       1.7098
       Tot       2.2271
    Quadrupole Moments (Debye-Ang)
        XX    -144.5036     XY       2.8461     YY    -150.0499
        XZ       2.5661     YZ      -6.2711     ZZ    -145.5586
    Octopole Moments (Debye-Ang^2)
       XXX     -21.1690    XXY      12.4713    XYY      22.4254
       YYY      -6.8765    XXZ      10.9580    XYZ      16.1332
       YYZ      -9.8573    XZZ       1.9281    YZZ      -4.5923
       ZZZ       8.6094
    Hexadecapole Moments (Debye-Ang^3)
      XXXX   -7405.1946   XXXY      63.4253   XXYY   -2158.6328
      XYYY      63.4950   YYYY   -5629.9967   XXXZ      71.7805
      XXYZ     -54.5137   XYYZ     -18.1747   YYYZ     -74.1782
      XXZZ   -1424.3958   XYZZ       9.5287   YYZZ   -1096.0793
      XZZZ      16.2617   YZZZ     -21.0424   ZZZZ   -1156.0138
 -----------------------------------------------------------------
Archival summary:
1\1\nia1977.scinet.local\SP\ProcedureUnspecified\6-31G*\112225\rhickman\MonFeb712:56:392022MonFeb712:56:392022\0\\#,ProcedureUnspecified,6-31G*,\\0,1\S\C,1,1.77355\C,2,1.37964,1,118.563\H,3,1.08013,2,118.594,1,-1.50863,0\C,3,1.39603,2,121.269,1,177.093,0\C,5,1.39456,3,117.414,2,1.37634,0\H,6,1.07846,5,120.036,3,178.974,0\C,6,1.37954,5,121.305,3,-0.327992,0\H,8,1.0793,6,118.96,5,178.047,0\C,8,1.3962,6,121.414,5,-1.32715,0\N,10,1.39088,8,121.661,6,-179.253,0\C,11,1.39196,10,119.573,8,-142.011,0\C,12,1.39537,11,121.696,10,142.761,0\H,13,1.0785,12,119.805,11,-0.79647,0\C,13,1.37975,12,121.125,11,179.42,0\H,15,1.08071,13,118.976,12,-179.33,0\C,15,1.39499,13,121.623,12,0.919092,0\C,17,1.39545,15,117.393,13,0.302372,0\H,18,1.07814,17,120.765,15,-179.698,0\C,18,1.37928,17,120.964,15,-1.23656,0\C,11,1.44729,10,120.328,8,30.9331,0\H,21,1.0912,11,107.522,10,12.7919,0\H,21,1.09793,11,111.7,10,-105.595,0\C,17,1.45468,15,119.463,13,-179.697,0\H,24,1.08363,17,114.296,15,-0.848598,0\C,24,1.32829,17,126.822,15,179.111,0\H,26,1.0762,24,122.819,17,-0.0924858,0\H,26,1.07641,24,121.251,17,179.985,0\C,5,1.45476,3,118.954,2,-178.935,0\H,29,1.08329,5,114.336,3,0.31556,0\C,29,1.32837,5,126.814,3,-179.602,0\H,31,1.07635,29,121.25,5,179.874,0\H,31,1.07641,29,122.87,5,-0.0492853,0\C,21,1.53284,11,111.065,10,130.86,0\H,34,1.09087,21,107.865,11,177.968,0\H,34,1.09126,21,109.957,11,60.2806,0\C,34,1.52759,21,111.413,11,-60.8367,0\H,37,1.09153,34,109.625,21,-66.2613,0\H,37,1.09241,34,108.814,21,50.8229,0\C,37,1.52848,34,113.08,21,170.555,0\H,40,1.09262,37,108.355,34,-176.826,0\H,40,1.09317,37,108.566,34,-60.3945,0\C,40,1.52958,37,114.949,34,61.414,0\H,43,1.09142,40,109.821,37,-60.8811,0\H,43,1.09274,40,108.006,37,-177.516,0\C,43,1.52417,40,113.251,37,61.945,0\H,46,1.08695,43,111.183,40,-66.1561,0\H,46,1.0878,43,110.29,40,174.017,0\H,46,1.08789,43,110.432,40,54.2836,0\\\@

 Total job time:  144.43s(wall), 144.05s(cpu) 
 Mon Feb  7 12:56:39 2022

        *************************************************************
        *                                                           *
        *  Thank you very much for using Q-Chem.  Have a nice day.  *
        *                                                           *
        *************************************************************


