
Running Job 1 of 1 fragments/C100/conf-2/spe_input.inp
qchem fragments/C100/conf-2/spe_input.inp_109897.0 /gpfs/fs0/scratch/a/aspuru/rhickman/descriptor_computation/qchem109897/ 0
/scinet/niagara/software/commercial/qc52/exe/qcprog.exe_s fragments/C100/conf-2/spe_input.inp_109897.0 /gpfs/fs0/scratch/a/aspuru/rhickman/descriptor_computation/qchem109897/
                  Welcome to Q-Chem
     A Quantum Leap Into The Future Of Chemistry


 Q-Chem 5.2, Q-Chem, Inc., Pleasanton, CA (2019)

 License issued to: SRG Alan Aspuru-Guzik, University of Toronto

 Yihan Shao,  Zhengting Gan,  E. Epifanovsky,  A. T. B. Gilbert,  M. Wormit,  
 J. Kussmann,  A. W. Lange,  A. Behn,  Jia Deng,  Xintian Feng,  D. Ghosh,  
 M. Goldey,  P. R. Horn,  L. D. Jacobson,  I. Kaliman,  T. Kus,  A. Landau,  
 Jie Liu,  E. I. Proynov,  R. M. Richard,  R. P. Steele,  E. J. Sundstrom,  
 H. L. Woodcock III,  P. M. Zimmerman,  D. Zuev,  B. Albrecht,  E. Alguire,  
 S. A. Baeppler,  D. Barton,  Z. Benda,  Y. A. Bernard,  E. J. Berquist,  
 K. B. Bravaya,  H. Burton,  D. Casanova,  Chun-Min Chang,  Yunqing Chen,  
 A. Chien,  K. D. Closser,  M. P. Coons,  S. Coriani,  S. Dasgupta,  
 A. L. Dempwolff,  M. Diedenhofen,  Hainam Do,  R. G. Edgar,  Po-Tung Fang,  
 S. Faraji,  S. Fatehi,  Qingguo Feng,  K. D. Fenk,  J. Fosso-Tande,  
 J. Gayvert,  Qinghui Ge,  A. Ghysels,  G. Gidofalvi,  J. Gomes,  
 J. Gonthier,  A. Gunina,  D. Hait,  M. W. D. Hanson-Heine,  
 P. H. P. Harbach,  A. W. Hauser,  M. F. Herbst,  J. E. Herr,  
 E. G. Hohenstein,  Z. C. Holden,  Kerwin Hui,  B. C. Huynh,  T.-C. Jagau,  
 Hyunjun Ji,  B. Kaduk,  K. Khistyaev,  Jaehoon Kim,  P. Klunzinger,  K. Koh,  
 D. Kosenkov,  L. Koulias,  T. Kowalczyk,  C. M. Krauter,  A. Kunitsa,  
 Ka Un Lao,  A. Laurent,  K. V. Lawler,  Joonho Lee,  D. Lefrancois,  
 S. Lehtola,  D. S. Levine,  Yi-Pei Li,  You-Sheng Lin,  Fenglai Liu,  
 E. Livshits,  A. Luenser,  P. Manohar,  E. Mansoor,  S. F. Manzer,  
 Shan-Ping Mao,  Yuezhi Mao,  N. Mardirossian,  A. V. Marenich,  
 T. Markovich,  L. A. Martinez-Martinez,  S. A. Maurer,  N. J. Mayhall,  
 S. C. McKenzie,  J.-M. Mewes,  P. Morgante,  A. F. Morrison,  
 J. W. Mullinax,  K. Nanda,  T. S. Nguyen-Beck,  R. Olivares-Amaya,  
 J. A. Parkhill,  Zheng Pei,  T. M. Perrine,  F. Plasser,  P. Pokhilko,  
 S. Prager,  A. Prociuk,  E. Ramos,  D. R. Rehn,  F. Rob,  M. Scheurer,  
 M. Schneider,  N. Sergueev,  S. M. Sharada,  S. Sharma,  D. W. Small,  
 T. Stauch,  T. Stein,  Yu-Chuan Su,  A. J. W. Thom,  A. Tkatchenko,  
 T. Tsuchimochi,  N. M. Tubman,  L. Vogt,  M. L. Vidal,  O. Vydrov,  
 M. A. Watson,  J. Wenzel,  M. de Wergifosse,  T. A. Wesolowski,  A. White,  
 J. Witte,  A. Yamada,  Jun Yang,  K. Yao,  S. Yeganeh,  S. R. Yost,  
 Zhi-Qiang You,  A. Zech,  Igor Ying Zhang,  Xing Zhang,  Yan Zhao,  
 Ying Zhu,  B. R. Brooks,  G. K. L. Chan,  C. J. Cramer,  M. S. Gordon,  
 W. J. Hehre,  A. Klamt,  M. W. Schmidt,  C. D. Sherrill,  D. G. Truhlar,  
 A. Aspuru-Guzik,  R. Baer,  A. T. Bell,  N. A. Besley,  Jeng-Da Chai,  
 A. E. DePrince, III,  R. A. DiStasio Jr.,  A. Dreuw,  B. D. Dunietz,  
 T. R. Furlani,  Chao-Ping Hsu,  Yousung Jung,  Jing Kong,  D. S. Lambrecht,  
 WanZhen Liang,  C. Ochsenfeld,  V. A. Rassolov,  L. V. Slipchenko,  
 J. E. Subotnik,  T. Van Voorhis,  J. M. Herbert,  A. I. Krylov,  
 P. M. W. Gill,  M. Head-Gordon

 Contributors to earlier versions of Q-Chem not listed above: 
 R. D. Adamson,  B. Austin,  J. Baker,  G. J. O. Beran,  K. Brandhorst,  
 S. T. Brown,  E. F. C. Byrd,  A. K. Chakraborty,  C.-L. Cheng,  
 Siu Hung Chien,  D. M. Chipman,  D. L. Crittenden,  H. Dachsel,  
 R. J. Doerksen,  A. D. Dutoi,  L. Fusti-Molnar,  W. A. Goddard III,  
 A. Golubeva-Zadorozhnaya,  S. R. Gwaltney,  G. Hawkins,  A. Heyden,  
 S. Hirata,  G. Kedziora,  F. J. Keil,  C. Kelley,  Jihan Kim,  R. A. King,  
 R. Z. Khaliullin,  P. P. Korambath,  W. Kurlancheek,  A. M. Lee,  M. S. Lee,  
 S. V. Levchenko,  Ching Yeh Lin,  D. Liotard,  R. C. Lochan,  I. Lotan,  
 P. E. Maslen,  N. Nair,  D. P. O'Neill,  D. Neuhauser,  E. Neuscamman,  
 C. M. Oana,  R. Olson,  B. Peters,  R. Peverati,  P. A. Pieniazek,  
 Y. M. Rhee,  J. Ritchie,  M. A. Rohrdanz,  E. Rosta,  N. J. Russ,  
 H. F. Schaefer III,  N. E. Schultz,  N. Shenvi,  A. C. Simmonett,  A. Sodt,  
 D. Stuck,  K. S. Thanthiriwatte,  V. Vanovschi,  Tao Wang,  A. Warshel,  
 C. F. Williams,  Q. Wu,  X. Xu,  W. Zhang

 Please cite Q-Chem as follows:
 Y. Shao et al., Mol. Phys. 113, 184-215 (2015)
 DOI: 10.1080/00268976.2014.952696

 Q-Chem 5.2.1 for Intel X86 EM64T Linux

 Parts of Q-Chem use Armadillo 8.300.2 (Tropical Shenanigans).
 http://arma.sourceforge.net/

 Q-Chem begins on Mon Feb  7 15:23:46 2022  

Host: 
0

     Scratch files written to /gpfs/fs0/scratch/a/aspuru/rhickman/descriptor_computation/qchem109897//
 Jul1719 |scratch|qcdevops|jenkins|workspace|build_RNUM -1
Processing $rem in /scinet/niagara/software/commercial/qc52/config/preferences:
	 MEM_TOTAL  4000 
NAlpha2: 72
NElect   72
Mult     1

Checking the input file for inconsistencies... 	...done.

--------------------------------------------------------------
User input:
--------------------------------------------------------------
$molecule
0 1
C        -3.65258089060000   -0.22005051800000    0.00101664350000
C        -2.54010255830000    0.50940562340000   -0.00039720090000
C        -1.20446154710000   -0.02535086430000   -0.00052929950000
C        -0.77034844440000   -1.33127840950000   -0.00074201570000
N         0.55600218910000   -1.51151228150000   -0.00038769150000
C         1.21523248260000   -0.39677551070000    0.00003092330000
C         2.64758363280000   -0.31124410470000    0.00051790070000
C         3.33779936660000    0.82539888660000    0.00029349450000
S         0.17795393280000    1.02610404180000    0.00003382140000
H        -4.62288828330000    0.24410195320000    0.00116259090000
H        -3.63296894090000   -1.29588125640000    0.00185059710000
H        -2.60235308340000    1.58961348240000   -0.00120312550000
H        -1.40840315020000   -2.19601874690000   -0.00119890440000
H         3.14296908820000   -1.27227877250000    0.00108340340000
H         2.84542627120000    1.78442919540000   -0.00018964010000
H         4.41316423490000    0.83210528470000    0.00053745930000
$end

$rem
BASIS = 6-31G*
GUI = 2
METHOD = B3LYP
PRINT_ORBITALS false
MOLDEN_FORMAT false
--------------------------------------------------------------
 ----------------------------------------------------------------
             Standard Nuclear Orientation (Angstroms)
    I     Atom           X                Y                Z
 ----------------------------------------------------------------
    1      C       3.6462001150     0.0055076137    -0.0010269656
    2      C       2.4911729549     0.6655275899     0.0004533960
    3      C       1.1907546840     0.0500491235     0.0005396840
    4      C       0.8373608264    -1.2799936414     0.0006366454
    5      N      -0.4754766702    -1.5410452625     0.0002680838
    6      C      -1.2016792320    -0.4687334790    -0.0000503096
    7      C      -2.6365800281    -0.4710036301    -0.0005277007
    8      C      -3.3950503459     0.6212773637    -0.0002010789
    9      S      -0.2534060149     1.0149480575     0.0000721391
   10      H       4.5862893381     0.5281606684    -0.0011328914
   11      H       3.6924518149    -1.0695072780    -0.0019567426
   12      H       2.4872121160     1.7475203321     0.0013554755
   13      H       1.5271309330    -2.1040730817     0.0010156150
   14      H      -3.0722344163    -1.4605487442    -0.0011781462
   15      H      -2.9622800333     1.6086375643     0.0003668241
   16      H      -4.4688106679     0.5621728140    -0.0004429702
 ----------------------------------------------------------------
 Molecular Point Group                 C1    NOp =  1
 Largest Abelian Subgroup              C1    NOp =  1
 Nuclear Repulsion Energy =         474.29292296 hartrees
 There are       36 alpha and       36 beta electrons
 Requested basis set is 6-31G(d)
 There are 51 shells and 153 basis functions

 Total QAlloc Memory Limit   4000 MB
 Mega-Array Size       188 MB
 MEM_STATIC part       192 MB
 A cutoff of  1.0D-08 yielded    978 shell pairs
 There are      9715 function pairs
 Smallest overlap matrix eigenvalue = 1.55E-03

 Scale SEOQF with 1.000000e-01/1.000000e-01/1.000000e+00

 Standard Electronic Orientation quadrupole field applied
 Nucleus-field energy     =     0.0000000165 hartrees
 Guess from superposition of atomic densities
 Warning:  Energy on first SCF cycle will be non-variational
 SAD guess density has 72.000000 electrons

 -----------------------------------------------------------------------
  General SCF calculation program by
  Eric Jon Sundstrom, Paul Horn, Yuezhi Mao, Dmitri Zuev, Alec White,
  David Stuck, Shaama M.S., Shane Yost, Joonho Lee, David Small,
  Daniel Levine, Susi Lehtola, Hugh Burton, Evgeny Epifanovsky,
  Bang C. Huynh
 -----------------------------------------------------------------------
 Exchange:     0.2000 Hartree-Fock + 0.0800 Slater + 0.7200 B88
 Correlation:  0.1900 VWN1RPA + 0.8100 LYP
 Using SG-1 standard quadrature grid
 A restricted SCF calculation will be
 performed using DIIS
 SCF converges when DIIS error is below 1.0e-05
 ---------------------------------------
  Cycle       Energy         DIIS error
 ---------------------------------------
    1    -725.9450534501      6.55e-02  
    2    -723.6942005024      6.93e-03  
    3    -723.5420196520      9.85e-03  
    4    -723.8268367459      2.62e-03  
    5    -723.8471814386      5.95e-04  
    6    -723.8479622105      3.03e-04  
    7    -723.8482412776      1.06e-04  
    8    -723.8482769791      2.29e-05  
    9    -723.8482783988      8.74e-06  Convergence criterion met
 ---------------------------------------
 SCF time:   CPU 14.41s  wall 14.00s 
 SCF   energy in the final basis set =     -723.8482783988
 Total energy in the final basis set =     -723.8482783988
 
 --------------------------------------------------------------
 
                    Orbital Energies (a.u.)
 --------------------------------------------------------------
 
 Alpha MOs
 -- Occupied --
-88.9118 -14.3329 -10.2517 -10.2273 -10.2169 -10.2070 -10.2031 -10.1937
-10.1911  -7.9741  -5.9377  -5.9345  -5.9313  -0.9742  -0.8285  -0.8074
 -0.7677  -0.7210  -0.6391  -0.6141  -0.5603  -0.5388  -0.4959  -0.4691
 -0.4663  -0.4269  -0.4236  -0.4144  -0.3831  -0.3738  -0.3550  -0.3355
 -0.2928  -0.2730  -0.2714  -0.2121
 -- Virtual --
 -0.0640  -0.0039   0.0136   0.0704   0.0894   0.1035   0.1098   0.1274
  0.1317   0.1636   0.1801   0.1924   0.2053   0.2349   0.2560   0.2934
  0.3072   0.3337   0.3515   0.3547   0.3777   0.3930   0.4577   0.4787
  0.5086   0.5138   0.5183   0.5321   0.5602   0.5683   0.5973   0.6138
  0.6154   0.6309   0.6486   0.6617   0.6733   0.6737   0.6864   0.7719
  0.7872   0.7897   0.8124   0.8339   0.8476   0.8526   0.8631   0.8761
  0.8801   0.9002   0.9042   0.9259   0.9614   0.9720   0.9981   1.0033
  1.0272   1.0810   1.0873   1.1018   1.1427   1.1981   1.2793   1.2842
  1.3125   1.3561   1.3628   1.4044   1.4252   1.4418   1.4539   1.4764
  1.6094   1.6108   1.6211   1.6979   1.7460   1.7484   1.8481   1.8565
  1.8964   1.9843   1.9997   2.0116   2.0590   2.0956   2.1005   2.1531
  2.1734   2.1962   2.2388   2.2482   2.3172   2.3644   2.3919   2.4420
  2.4774   2.5032   2.5733   2.5921   2.6094   2.6763   2.7427   2.8031
  2.9302   3.0257   3.0827   3.1873   3.9486   4.0628   4.0859   4.1122
  4.1411   4.2173   4.2410   4.4477   4.5347
 --------------------------------------------------------------
 
          Ground-State Mulliken Net Atomic Charges

     Atom                 Charge (a.u.)
  ----------------------------------------
      1 C                    -0.335761
      2 C                    -0.091331
      3 C                    -0.137656
      4 C                     0.033886
      5 N                    -0.421918
      6 C                     0.083296
      7 C                    -0.066430
      8 C                    -0.357640
      9 S                     0.223431
     10 H                     0.151771
     11 H                     0.148828
     12 H                     0.143081
     13 H                     0.149766
     14 H                     0.161497
     15 H                     0.159074
     16 H                     0.156106
  ----------------------------------------
  Sum of atomic charges =     0.000000

 -----------------------------------------------------------------
                    Cartesian Multipole Moments
 -----------------------------------------------------------------
    Charge (ESU x 10^10)
                -0.0000
    Dipole Moment (Debye)
         X       0.4992      Y       1.0515      Z      -0.0002
       Tot       1.1640
    Quadrupole Moments (Debye-Ang)
        XX     -48.9096     XY      -1.6292     YY     -58.9215
        XZ       0.0010     YZ       0.0037     ZZ     -63.1016
    Octopole Moments (Debye-Ang^2)
       XXX      -5.9464    XXY       0.2996    XYY       6.7115
       YYY       6.9215    XXZ      -0.0167    XYZ       0.0005
       YYZ       0.0019    XZZ      -1.0746    YZZ      -0.7261
       ZZZ       0.0018
    Hexadecapole Moments (Debye-Ang^3)
      XXXX   -1493.7892   XXXY       5.2586   XXYY    -312.0566
      XYYY     -10.7839   YYYY    -370.9958   XXXZ      -0.0276
      XXYZ       0.0329   XYYZ       0.0105   YYYZ       0.0084
      XXZZ    -326.0356   XYZZ       0.3736   YYZZ     -75.7259
      XZZZ       0.0006   YZZZ       0.0027   ZZZZ     -67.5219
 -----------------------------------------------------------------
Archival summary:
1\1\nia1977.scinet.local\SP\ProcedureUnspecified\6-31G*\1177\rhickman\MonFeb715:24:002022MonFeb715:24:002022\0\\#,ProcedureUnspecified,6-31G*,\\0,1\S\C,1,1.73684\C,2,1.37619,1,108.869\H,3,1.07466,2,125.19,1,-179.993,0\N,3,1.33854,2,116.126,1,0.00463158,0\C,5,1.29508,3,112.861,2,-0.00359831,0\C,6,1.4349,5,124.016,3,179.998,0\H,7,1.0812,6,113.852,5,-0.0333881,0\C,7,1.3298,6,124.685,5,179.966,0\H,9,1.07539,7,121.625,6,-179.991,0\H,9,1.07804,7,121.556,6,0.00614317,0\C,2,1.43872,1,120.924,3,179.986,0\H,12,1.082,2,115.118,1,0.0744062,0\C,12,1.33031,2,124.927,1,-179.905,0\H,14,1.07561,12,121.183,2,179.992,0\H,14,1.07601,12,122.209,2,-0.0219829,0\\\@

 Total job time:  14.60s(wall), 14.53s(cpu) 
 Mon Feb  7 15:24:00 2022

        *************************************************************
        *                                                           *
        *  Thank you very much for using Q-Chem.  Have a nice day.  *
        *                                                           *
        *************************************************************


