32
 energy: -53.337896504733 gnorm: 0.000018862456 xtb: 6.4.1 (23d549d)
C         1.28219517030000    3.53182301130000   -0.29075685020000
C         1.61197532710000    2.38714361260000    0.29147622150000
C         0.81488269290000    1.16578547340000    0.20907780800000
C        -0.57414856530000    1.24402057710000    0.20647944090000
C        -1.38659788310000    0.11727514500000    0.18572868320000
C        -2.84850270530000    0.37908199690000    0.11776537210000
O        -3.36828544130000    1.39344504190000    0.51423733370000
O        -3.53312977850000   -0.60707247020000   -0.47704478830000
C        -4.93060269070000   -0.39800115000000   -0.61227020470000
C        -0.81491464190000   -1.16571649420000    0.21011978050000
C        -1.61186262830000   -2.38708354620000    0.29359446170000
C        -1.28149950290000   -3.53257039460000   -0.28674634750000
C         0.57414536620000   -1.24393685740000    0.20799593760000
C         1.38655812920000   -0.11721808870000    0.18621639780000
C         2.84853682150000   -0.37874834890000    0.11875805410000
O         3.36879860190000   -1.39188595620000    0.51769147240000
O         3.53250073510000    0.60617322590000   -0.47885754580000
C         4.93001606640000    0.39749029380000   -0.61415802980000
H         1.89359685910000    4.41173416590000   -0.18957233950000
H         0.40432225390000    3.62841771880000   -0.90734283110000
H         2.52267479080000    2.32106647350000    0.86971330670000
H        -1.05542119390000    2.21018152240000    0.23798962920000
H        -5.32064196770000   -1.27690267070000   -1.11886984310000
H        -5.12442509860000    0.50225344020000   -1.19911713370000
H        -5.39459512920000   -0.28057835440000    0.36946690270000
H        -2.52304669990000   -2.32036623030000    0.87097764580000
H        -0.40323133090000   -3.63002700270000   -0.90263746420000
H        -1.89291045150000   -4.41237651520000   -0.18470162250000
H         1.05540296690000   -2.21006077180000    0.24072913340000
H         5.31859123170000    1.27299420530000   -1.12770740090000
H         5.12407483730000   -0.50694281570000   -1.19445234460000
H         5.39529202780000    0.28793531240000    0.36787605540000
