
Running Job 1 of 1 fragments/B028/conf-1/spe_input.inp
qchem fragments/B028/conf-1/spe_input.inp_162296.0 /gpfs/fs0/scratch/a/aspuru/rhickman/descriptor_computation/qchem162296/ 0
/scinet/niagara/software/commercial/qc52/exe/qcprog.exe_s fragments/B028/conf-1/spe_input.inp_162296.0 /gpfs/fs0/scratch/a/aspuru/rhickman/descriptor_computation/qchem162296/
                  Welcome to Q-Chem
     A Quantum Leap Into The Future Of Chemistry


 Q-Chem 5.2, Q-Chem, Inc., Pleasanton, CA (2019)

 License issued to: SRG Alan Aspuru-Guzik, University of Toronto

 Yihan Shao,  Zhengting Gan,  E. Epifanovsky,  A. T. B. Gilbert,  M. Wormit,  
 J. Kussmann,  A. W. Lange,  A. Behn,  Jia Deng,  Xintian Feng,  D. Ghosh,  
 M. Goldey,  P. R. Horn,  L. D. Jacobson,  I. Kaliman,  T. Kus,  A. Landau,  
 Jie Liu,  E. I. Proynov,  R. M. Richard,  R. P. Steele,  E. J. Sundstrom,  
 H. L. Woodcock III,  P. M. Zimmerman,  D. Zuev,  B. Albrecht,  E. Alguire,  
 S. A. Baeppler,  D. Barton,  Z. Benda,  Y. A. Bernard,  E. J. Berquist,  
 K. B. Bravaya,  H. Burton,  D. Casanova,  Chun-Min Chang,  Yunqing Chen,  
 A. Chien,  K. D. Closser,  M. P. Coons,  S. Coriani,  S. Dasgupta,  
 A. L. Dempwolff,  M. Diedenhofen,  Hainam Do,  R. G. Edgar,  Po-Tung Fang,  
 S. Faraji,  S. Fatehi,  Qingguo Feng,  K. D. Fenk,  J. Fosso-Tande,  
 J. Gayvert,  Qinghui Ge,  A. Ghysels,  G. Gidofalvi,  J. Gomes,  
 J. Gonthier,  A. Gunina,  D. Hait,  M. W. D. Hanson-Heine,  
 P. H. P. Harbach,  A. W. Hauser,  M. F. Herbst,  J. E. Herr,  
 E. G. Hohenstein,  Z. C. Holden,  Kerwin Hui,  B. C. Huynh,  T.-C. Jagau,  
 Hyunjun Ji,  B. Kaduk,  K. Khistyaev,  Jaehoon Kim,  P. Klunzinger,  K. Koh,  
 D. Kosenkov,  L. Koulias,  T. Kowalczyk,  C. M. Krauter,  A. Kunitsa,  
 Ka Un Lao,  A. Laurent,  K. V. Lawler,  Joonho Lee,  D. Lefrancois,  
 S. Lehtola,  D. S. Levine,  Yi-Pei Li,  You-Sheng Lin,  Fenglai Liu,  
 E. Livshits,  A. Luenser,  P. Manohar,  E. Mansoor,  S. F. Manzer,  
 Shan-Ping Mao,  Yuezhi Mao,  N. Mardirossian,  A. V. Marenich,  
 T. Markovich,  L. A. Martinez-Martinez,  S. A. Maurer,  N. J. Mayhall,  
 S. C. McKenzie,  J.-M. Mewes,  P. Morgante,  A. F. Morrison,  
 J. W. Mullinax,  K. Nanda,  T. S. Nguyen-Beck,  R. Olivares-Amaya,  
 J. A. Parkhill,  Zheng Pei,  T. M. Perrine,  F. Plasser,  P. Pokhilko,  
 S. Prager,  A. Prociuk,  E. Ramos,  D. R. Rehn,  F. Rob,  M. Scheurer,  
 M. Schneider,  N. Sergueev,  S. M. Sharada,  S. Sharma,  D. W. Small,  
 T. Stauch,  T. Stein,  Yu-Chuan Su,  A. J. W. Thom,  A. Tkatchenko,  
 T. Tsuchimochi,  N. M. Tubman,  L. Vogt,  M. L. Vidal,  O. Vydrov,  
 M. A. Watson,  J. Wenzel,  M. de Wergifosse,  T. A. Wesolowski,  A. White,  
 J. Witte,  A. Yamada,  Jun Yang,  K. Yao,  S. Yeganeh,  S. R. Yost,  
 Zhi-Qiang You,  A. Zech,  Igor Ying Zhang,  Xing Zhang,  Yan Zhao,  
 Ying Zhu,  B. R. Brooks,  G. K. L. Chan,  C. J. Cramer,  M. S. Gordon,  
 W. J. Hehre,  A. Klamt,  M. W. Schmidt,  C. D. Sherrill,  D. G. Truhlar,  
 A. Aspuru-Guzik,  R. Baer,  A. T. Bell,  N. A. Besley,  Jeng-Da Chai,  
 A. E. DePrince, III,  R. A. DiStasio Jr.,  A. Dreuw,  B. D. Dunietz,  
 T. R. Furlani,  Chao-Ping Hsu,  Yousung Jung,  Jing Kong,  D. S. Lambrecht,  
 WanZhen Liang,  C. Ochsenfeld,  V. A. Rassolov,  L. V. Slipchenko,  
 J. E. Subotnik,  T. Van Voorhis,  J. M. Herbert,  A. I. Krylov,  
 P. M. W. Gill,  M. Head-Gordon

 Contributors to earlier versions of Q-Chem not listed above: 
 R. D. Adamson,  B. Austin,  J. Baker,  G. J. O. Beran,  K. Brandhorst,  
 S. T. Brown,  E. F. C. Byrd,  A. K. Chakraborty,  C.-L. Cheng,  
 Siu Hung Chien,  D. M. Chipman,  D. L. Crittenden,  H. Dachsel,  
 R. J. Doerksen,  A. D. Dutoi,  L. Fusti-Molnar,  W. A. Goddard III,  
 A. Golubeva-Zadorozhnaya,  S. R. Gwaltney,  G. Hawkins,  A. Heyden,  
 S. Hirata,  G. Kedziora,  F. J. Keil,  C. Kelley,  Jihan Kim,  R. A. King,  
 R. Z. Khaliullin,  P. P. Korambath,  W. Kurlancheek,  A. M. Lee,  M. S. Lee,  
 S. V. Levchenko,  Ching Yeh Lin,  D. Liotard,  R. C. Lochan,  I. Lotan,  
 P. E. Maslen,  N. Nair,  D. P. O'Neill,  D. Neuhauser,  E. Neuscamman,  
 C. M. Oana,  R. Olson,  B. Peters,  R. Peverati,  P. A. Pieniazek,  
 Y. M. Rhee,  J. Ritchie,  M. A. Rohrdanz,  E. Rosta,  N. J. Russ,  
 H. F. Schaefer III,  N. E. Schultz,  N. Shenvi,  A. C. Simmonett,  A. Sodt,  
 D. Stuck,  K. S. Thanthiriwatte,  V. Vanovschi,  Tao Wang,  A. Warshel,  
 C. F. Williams,  Q. Wu,  X. Xu,  W. Zhang

 Please cite Q-Chem as follows:
 Y. Shao et al., Mol. Phys. 113, 184-215 (2015)
 DOI: 10.1080/00268976.2014.952696

 Q-Chem 5.2.1 for Intel X86 EM64T Linux

 Parts of Q-Chem use Armadillo 8.300.2 (Tropical Shenanigans).
 http://arma.sourceforge.net/

 Q-Chem begins on Mon Feb  7 18:13:14 2022  

Host: 
0

     Scratch files written to /gpfs/fs0/scratch/a/aspuru/rhickman/descriptor_computation/qchem162296//
 Jul1719 |scratch|qcdevops|jenkins|workspace|build_RNUM -1
Processing $rem in /scinet/niagara/software/commercial/qc52/config/preferences:
	 MEM_TOTAL  4000 
NAlpha2: 80
NElect   80
Mult     1

Checking the input file for inconsistencies... 	...done.

--------------------------------------------------------------
User input:
--------------------------------------------------------------
$molecule
0 1
C         4.33622059940000   -0.55112373400000    0.00018625100000
C         3.10145256350000   -1.03583054360000   -0.00029567780000
C         1.91704676080000   -0.20213099880000   -0.00013197710000
C         0.56672002360000   -0.64374639740000   -0.00025267720000
C        -0.16216470520000    0.51905220320000   -0.00010530540000
C        -1.57119615330000    0.81207505620000   -0.00026501870000
C        -2.53074223810000   -0.10360205610000    0.00000532080000
F        -2.35743011880000   -1.41678277230000    0.00057094990000
F        -3.82441106560000    0.17682547940000   -0.00021222890000
O         0.68973695840000    1.56499100040000    0.00016013670000
N         1.95637643990000    1.11359776020000    0.00015032620000
H         5.19791189160000   -1.19583783850000    0.00005715220000
H         4.50769173700000    0.51122134930000    0.00071058850000
H         2.91103685730000   -2.10048057080000   -0.00087176340000
H         0.20610746790000   -1.65000599010000   -0.00042734160000
H        -1.85235082280000    1.85289637470000   -0.00062383570000
$end

$rem
BASIS = 6-31G*
GUI = 2
METHOD = B3LYP
PRINT_ORBITALS false
MOLDEN_FORMAT false
--------------------------------------------------------------
 ----------------------------------------------------------------
             Standard Nuclear Orientation (Angstroms)
    I     Atom           X                Y                Z
 ----------------------------------------------------------------
    1      C       4.2418449357     0.4417600073    -0.0001854239
    2      C       3.0189992686     0.9558040271     0.0003109831
    3      C       1.8150295960     0.1506151943     0.0001259402
    4      C       0.4756295148     0.6243386122     0.0002600740
    5      C      -0.2808048635    -0.5207293136     0.0000819418
    6      C      -1.6964295936    -0.7800334585     0.0002352223
    7      C      -2.6338439757     0.1582882095    -0.0000092436
    8      F      -2.4292340976     1.4669575798    -0.0005394347
    9      F      -3.9338382937    -0.0911780481     0.0002020909
   10      O       0.5458862737    -1.5867059358    -0.0002127918
   11      N       1.8229400975    -1.1656774758    -0.0001920990
   12      H       5.1186807560     1.0657208228    -0.0000397625
   13      H       4.3879078030    -0.6243755537    -0.0007387657
   14      H       2.8540522528     2.0246961027     0.0009161559
   15      H       0.1391403008     1.6389196990     0.0004624247
   16      H      -2.0023497571    -1.8138467095     0.0005661061
 ----------------------------------------------------------------
 Molecular Point Group                 C1    NOp =  1
 Largest Abelian Subgroup              C1    NOp =  1
 Nuclear Repulsion Energy =         568.49860316 hartrees
 There are       40 alpha and       40 beta electrons
 Requested basis set is 6-31G(d)
 There are 54 shells and 175 basis functions

 Total QAlloc Memory Limit   4000 MB
 Mega-Array Size       188 MB
 MEM_STATIC part       192 MB
 A cutoff of  1.0D-08 yielded   1018 shell pairs
 There are     11518 function pairs
 Smallest overlap matrix eigenvalue = 9.64E-04

 Scale SEOQF with 1.000000e-01/1.000000e-01/1.000000e+00

 Standard Electronic Orientation quadrupole field applied
 Nucleus-field energy     =     0.0000000239 hartrees
 Guess from superposition of atomic densities
 Warning:  Energy on first SCF cycle will be non-variational
 SAD guess density has 80.000000 electrons

 -----------------------------------------------------------------------
  General SCF calculation program by
  Eric Jon Sundstrom, Paul Horn, Yuezhi Mao, Dmitri Zuev, Alec White,
  David Stuck, Shaama M.S., Shane Yost, Joonho Lee, David Small,
  Daniel Levine, Susi Lehtola, Hugh Burton, Evgeny Epifanovsky,
  Bang C. Huynh
 -----------------------------------------------------------------------
 Exchange:     0.2000 Hartree-Fock + 0.0800 Slater + 0.7200 B88
 Correlation:  0.1900 VWN1RPA + 0.8100 LYP
 Using SG-1 standard quadrature grid
 A restricted SCF calculation will be
 performed using DIIS
 SCF converges when DIIS error is below 1.0e-05
 ---------------------------------------
  Cycle       Energy         DIIS error
 ---------------------------------------
    1    -601.8107775426      6.08e-02  
    2    -599.1383432155      6.63e-03  
    3    -598.9732281857      9.31e-03  
    4    -599.2962144058      1.66e-03  
    5    -599.3051921946      6.07e-04  
    6    -599.3061365038      2.89e-04  
    7    -599.3064105305      6.74e-05  
    8    -599.3064255949      2.72e-05  
    9    -599.3064283427      7.32e-06  Convergence criterion met
 ---------------------------------------
 SCF time:   CPU 15.76s  wall 16.00s 
 SCF   energy in the final basis set =     -599.3064283427
 Total energy in the final basis set =     -599.3064283427
 
 --------------------------------------------------------------
 
                    Orbital Energies (a.u.)
 --------------------------------------------------------------
 
 Alpha MOs
 -- Occupied --
-24.7615 -24.7553 -19.2445 -14.3731 -10.3797 -10.2691 -10.2267 -10.2250
-10.2006 -10.1969 -10.1888  -1.3057  -1.2453  -1.1652  -0.8817  -0.8421
 -0.7811  -0.7704  -0.6681  -0.6410  -0.6258  -0.5984  -0.5604  -0.5388
 -0.5313  -0.5119  -0.4826  -0.4693  -0.4594  -0.4592  -0.4475  -0.4362
 -0.4109  -0.3970  -0.3692  -0.3427  -0.3210  -0.2955  -0.2538  -0.2327
 -- Virtual --
 -0.0468  -0.0198   0.0815   0.0894   0.1056   0.1168   0.1190   0.1455
  0.1560   0.1642   0.1765   0.2145   0.2200   0.2702   0.3211   0.3449
  0.3631   0.3960   0.4218   0.4339   0.4825   0.4861   0.4969   0.5258
  0.5444   0.5590   0.5664   0.5696   0.5919   0.6021   0.6195   0.6371
  0.6515   0.6696   0.6859   0.7234   0.7234   0.7430   0.8084   0.8158
  0.8172   0.8297   0.8535   0.8578   0.8799   0.8978   0.9442   0.9761
  0.9898   1.0011   1.0432   1.0710   1.1009   1.1175   1.1455   1.1524
  1.1751   1.1976   1.2175   1.2651   1.2774   1.3163   1.3250   1.3458
  1.3570   1.3796   1.3855   1.4092   1.4227   1.4375   1.4960   1.5289
  1.5505   1.5550   1.6081   1.6717   1.6719   1.7028   1.7663   1.7787
  1.7946   1.8181   1.8414   1.8742   1.8968   1.9161   1.9375   1.9542
  1.9591   1.9824   1.9933   2.0297   2.0338   2.0821   2.0867   2.1212
  2.1774   2.2134   2.2394   2.2490   2.2604   2.3213   2.3363   2.3500
  2.4250   2.4447   2.5077   2.5220   2.5496   2.5997   2.6187   2.6651
  2.6698   2.6917   2.7675   2.8501   2.8619   2.9142   3.0319   3.0596
  3.0848   3.1347   3.2192   3.3478   3.8265   4.0593   4.1051   4.1198
  4.1689   4.2430   4.2942   4.4721   4.6397   4.8015   5.3109
 --------------------------------------------------------------
 
          Ground-State Mulliken Net Atomic Charges

     Atom                 Charge (a.u.)
  ----------------------------------------
      1 C                    -0.332591
      2 C                    -0.097323
      3 C                     0.311874
      4 C                    -0.309142
      5 C                     0.427735
      6 C                    -0.305023
      7 C                     0.573665
      8 F                    -0.230015
      9 F                    -0.234054
     10 O                    -0.371215
     11 N                    -0.236537
     12 H                     0.148118
     13 H                     0.175673
     14 H                     0.135145
     15 H                     0.154269
     16 H                     0.189420
  ----------------------------------------
  Sum of atomic charges =     0.000000

 -----------------------------------------------------------------
                    Cartesian Multipole Moments
 -----------------------------------------------------------------
    Charge (ESU x 10^10)
                 0.0000
    Dipole Moment (Debye)
         X      -0.8870      Y       1.7178      Z       0.0009
       Tot       1.9333
    Quadrupole Moments (Debye-Ang)
        XX     -57.3884     XY       6.5269     YY     -59.7446
        XZ      -0.0002     YZ       0.0009     ZZ     -61.7704
    Octopole Moments (Debye-Ang^2)
       XXX     -11.8035    XXY       8.1956    XYY     -18.7983
       YYY      11.5599    XXZ      -0.0034    XYZ       0.0042
       YYZ       0.0052    XZZ     -21.6153    YZZ       0.5788
       ZZZ      -0.0055
    Hexadecapole Moments (Debye-Ang^3)
      XXXX   -2149.6168   XXXY       9.4181   XXYY    -426.4597
      XYYY      -1.1173   YYYY    -352.7638   XXXZ      -0.0135
      XXYZ       0.0135   XYYZ       0.0043   YYYZ      -0.0028
      XXZZ    -404.8910   XYZZ     -15.6982   YYZZ     -70.9736
      XZZZ       0.0041   YZZZ      -0.0052   ZZZZ     -55.7285
 -----------------------------------------------------------------
Archival summary:
1\1\nia1977.scinet.local\SP\ProcedureUnspecified\6-31G*\21175\rhickman\MonFeb718:13:302022MonFeb718:13:302022\0\\#,ProcedureUnspecified,6-31G*,\\0,1\O\N,1,1.34467\C,2,1.31632,1,107.902\C,1,1.34897,2,109.548,3,0,0\C,4,1.37236,1,108.757,2,0.00177735,0\H,5,1.06892,4,128.203,1,179.997,0\C,4,1.43918,1,117.414,2,-179.994,0\H,7,1.07813,4,116.864,1,0.0275576,0\C,7,1.32635,4,124.592,1,-179.972,0\F,9,1.32371,7,124.109,4,-179.996,0\F,9,1.32457,7,126.141,4,0.0059906,0\C,3,1.4484,2,123.429,1,179.997,0\H,12,1.08154,3,115.001,2,-179.98,0\C,12,1.3265,3,123.426,2,0.0187665,0\H,14,1.07609,12,120.601,3,-0.00137434,0\H,14,1.07618,12,121.764,3,180,0\\\@

 Total job time:  16.63s(wall), 15.90s(cpu) 
 Mon Feb  7 18:13:30 2022

        *************************************************************
        *                                                           *
        *  Thank you very much for using Q-Chem.  Have a nice day.  *
        *                                                           *
        *************************************************************


