
Running Job 1 of 1 tidas/B051/conf-3/spe_input.inp
qchem tidas/B051/conf-3/spe_input.inp_134558.0 /home/a/aspuru/seifridm/acdc_laser/descriptor_computation/qchem134558/ 0
/gpfs/fs1/scinet/niagara/software/commercial/qc54/exe/qcprog.exe_s tidas/B051/conf-3/spe_input.inp_134558.0 /home/a/aspuru/seifridm/acdc_laser/descriptor_computation/qchem134558/
                  Welcome to Q-Chem
     A Quantum Leap Into The Future Of Chemistry


 Q-Chem 5.4, Q-Chem, Inc., Pleasanton, CA (2021)

 License issued to: SRG Alan Aspuru-Guzik, University of Toronto

 E. Epifanovsky,  A. T. B. Gilbert,  Xintian Feng,  Joonho Lee,  Yuezhi Mao,  
 N. Mardirossian,  P. Pokhilko,  A. White,  M. Wormit,  M. P. Coons,  
 A. L. Dempwolff,  Zhengting Gan,  D. Hait,  P. R. Horn,  L. D. Jacobson,  
 I. Kaliman,  J. Kussmann,  A. W. Lange,  Ka Un Lao,  D. S. Levine,  Jie Liu,  
 S. C. McKenzie,  A. F. Morrison,  K. Nanda,  F. Plasser,  D. R. Rehn,  
 M. L. Vidal,  Zhi-Qiang You,  Ying Zhu,  B. Alam,  B. Albrecht,  
 A. Aldossary,  E. Alguire,  J. H. Andersen,  D. Barton,  K. Begam,  A. Behn,  
 Y. A. Bernard,  E. J. Berquist,  H. Burton,  A. Carreras,  K. Carter-Fenk,  
 Romit Chakraborty,  A. D. Chien,  K. D. Closser,  V. Cofer-Shabica,  
 S. Dasgupta,  Jia Deng,  M. de Wergifosse,  M. Diedenhofen,  Hainam Do,  
 S. Ehlert,  Po-Tung Fang,  S. Fatehi,  Qingguo Feng,  T. Friedhoff,  
 J. Gayvert,  Qinghui Ge,  G. Gidofalvi,  M. Goldey,  J. Gomes,  
 C. Gonzalez-Espinoza,  S. Gulania,  A. Gunina,  M. W. D. Hanson-Heine,  
 P. H. P. Harbach,  A. W. Hauser,  M. F. Herbst,  M. Hernandez Vera,  
 M. Hodecker,  Z. C. Holden,  S. Houck,  Xunkun Huang,  Kerwin Hui,  
 B. C. Huynh,  M. Ivanov,  Hyunjun Ji,  Hanjie Jiang,  B. Kaduk,  S. Kaehler,  
 K. Khistyaev,  Jaehoon Kim,  P. Klunzinger,  Z. Koczor-Benda,  
 Joong Hoon Koh,  D. Kosenkov,  L. Koulias,  T. Kowalczyk,  C. M. Krauter,  
 K. Kue,  A. Kunitsa,  T. Kus,  A. Landau,  K. V. Lawler,  D. Lefrancois,  
 S. Lehtola,  Rain Li,  Yi-Pei Li,  Jiashu Liang,  M. Liebenthal,  
 Hung-Hsuan Lin,  You-Sheng Lin,  Fenglai Liu,  Kuan-Yu Liu,  
 M. Loipersberger,  A. Luenser,  A. Manjanath,  P. Manohar,  E. Mansoor,  
 S. F. Manzer,  Shan-Ping Mao,  A. V. Marenich,  T. Markovich,  S. Mason,  
 S. A. Maurer,  P. F. McLaughlin,  M. F. S. J. Menger,  J.-M. Mewes,  
 S. A. Mewes,  P. Morgante,  J. W. Mullinax,  K. J. Oosterbaan,  G. Paran,  
 Alexander C. Paul,  Suranjan K. Paul,  F. Pavosevic,  Zheng Pei,  S. Prager,  
 E. I. Proynov,  E. Ramos,  B. Rana,  A. E. Rask,  A. Rettig,  R. M. Richard,  
 F. Rob,  E. Rossomme,  T. Scheele,  M. Scheurer,  M. Schneider,  
 N. Sergueev,  S. M. Sharada,  W. Skomorowski,  D. W. Small,  C. J. Stein,  
 Yu-Chuan Su,  E. J. Sundstrom,  Zhen Tao,  J. Thirman,  T. Tsuchimochi,  
 N. M. Tubman,  S. P. Veccham,  O. Vydrov,  J. Wenzel,  J. Witte,  A. Yamada,  
 Kun Yao,  S. Yeganeh,  S. R. Yost,  A. Zech,  Igor Ying Zhang,  Xing Zhang,  
 Yu Zhang,  D. Zuev,  A. Aspuru-Guzik,  A. T. Bell,  N. A. Besley,  
 K. B. Bravaya,  B. R. Brooks,  D. Casanova,  Jeng-Da Chai,  S. Coriani,  
 C. J. Cramer,  A. E. DePrince, III,  R. A. DiStasio Jr.,  A. Dreuw,  
 B. D. Dunietz,  T. R. Furlani,  W. A. Goddard III,  S. Grimme,  
 S. Hammes-Schiffer,  T. Head-Gordon,  W. J. Hehre,  Chao-Ping Hsu,  
 T.-C. Jagau,  Yousung Jung,  A. Klamt,  Jing Kong,  D. S. Lambrecht,  
 WanZhen Liang,  N. J. Mayhall,  C. W. McCurdy,  J. B. Neaton,  T. Neudecker,  
 C. Ochsenfeld,  J. A. Parkhill,  R. Peverati,  V. A. Rassolov,  Yihan Shao,  
 L. V. Slipchenko,  R. P. Steele,  J. E. Subotnik,  A. J. W. Thom,  
 A. Tkatchenko,  D. G. Truhlar,  T. Van Voorhis,  T. A. Wesolowski,  
 K. B. Whaley,  H. L. Woodcock III,  P. M. Zimmerman,  S. Faraji,  
 P. M. W. Gill,  M. Head-Gordon,  J. M. Herbert,  A. I. Krylov

 Additional authors since Version 5.4.0: 
 Chandrima Chakravarty,  L. Cunha,  R. Kang,  Yongbin Kim,  S. Kotaru,  
 Shaozhi Li,  Xiangyuan Li,  F. Matz,  A. Molle,  V. Parravicini,  
 Haisheng Ren,  Hengyuan Shen,  Yingli Su,  Hung-Yi Tsai,  C. Utku,  
 Fang Wang,  Jeff Yang,  F. Zeller

 Contributors to earlier versions of Q-Chem not listed above: 
 R. D. Adamson,  B. Austin,  R. Baer,  J. Baker,  G. J. O. Beran,  
 K. Brandhorst,  S. T. Brown,  E. F. C. Byrd,  Arup K. Chakraborty,  
 G. K. L. Chan,  Chun-Min Chang,  Yunqing Chen,  C.-L. Cheng,  
 Siu Hung Chien,  D. M. Chipman,  D. L. Crittenden,  H. Dachsel,  
 R. J. Doerksen,  A. D. Dutoi,  R. G. Edgar,  J. Fosso-Tande,  
 L. Fusti-Molnar,  D. Ghosh,  A. Ghysels,  A. Golubeva-Zadorozhnaya,  
 J. Gonthier,  M. S. Gordon,  S. R. Gwaltney,  G. Hawkins,  J. E. Herr,  
 A. Heyden,  S. Hirata,  E. G. Hohenstein,  G. Kedziora,  F. J. Keil,  
 C. Kelley,  Jihan Kim,  R. A. King,  R. Z. Khaliullin,  P. P. Korambath,  
 W. Kurlancheek,  A. Laurent,  A. M. Lee,  M. S. Lee,  S. V. Levchenko,  
 Ching Yeh Lin,  D. Liotard,  E. Livshits,  R. C. Lochan,  I. Lotan,  
 L. A. Martinez-Martinez,  P. E. Maslen,  N. Nair,  D. P. O'Neill,  
 D. Neuhauser,  E. Neuscamman,  C. M. Oana,  R. Olivares-Amaya,  R. Olson,  
 T. M. Perrine,  B. Peters,  P. A. Pieniazek,  A. Prociuk,  Y. M. Rhee,  
 J. Ritchie,  M. A. Rohrdanz,  E. Rosta,  N. J. Russ,  H. F. Schaefer III,  
 M. W. Schmidt,  N. E. Schultz,  S. Sharma,  N. Shenvi,  C. D. Sherrill,  
 A. C. Simmonett,  A. Sodt,  T. Stein,  D. Stuck,  K. S. Thanthiriwatte,  
 V. Vanovschi,  L. Vogt,  Tao Wang,  A. Warshel,  M. A. Watson,  
 C. F. Williams,  Q. Wu,  X. Xu,  Jun Yang,  W. Zhang,  Yan Zhao

   Please cite Q-Chem as follows:
  "Software for the frontiers of quantum chemistry:
   An overview of developments in the Q-Chem 5 package"
   J. Chem. Phys. 155, 084801 (2021)
   https://doi.org/10.1063/5.0055522 (open access)

 Q-Chem 5.4.2 for Intel X86 EM64T Linux

 Parts of Q-Chem use Armadillo 9.900.5 (Nocturnal Misbehaviour).
 http://arma.sourceforge.net/

 Q-Chem begins on Fri Aug 12 13:11:43 2022  

 Host: 
0

     Scratch files written to /home/a/aspuru/seifridm/acdc_laser/descriptor_computation/qchem134558//
 Dec1321 |scratch|qcdevops|jenkins|workspace|build_RNUM 6959   
 Processing $rem in /gpfs/fs1/scinet/niagara/software/commercial/qc54/config/preferences:
 Processing $rem in /home/a/aspuru/seifridm/.qchemrc:

 Checking the input file for inconsistencies... 	...done.

--------------------------------------------------------------
User input:
--------------------------------------------------------------
$molecule
0 1
C            1.59538688110000        2.90172683750000        1.39475583200000
C            0.89857503700000        2.71737696340000        0.28630803280000
C           -0.15484382060000        1.70024994290000        0.11794095750000
C           -1.44592878740000        2.13582646730000       -0.16135691320000
C           -2.49266944250000        1.24630988370000       -0.30888940600000
C           -2.24474016140000       -0.10753551690000       -0.17740329310000
F           -3.25442596980000       -0.98436319980000       -0.29199395200000
C           -0.95823185850000       -0.56437047870000        0.07203921650000
F           -0.75224656940000       -1.88142460180000        0.22742541530000
C            0.10848198160000        0.32492566350000        0.20951904450000
C            1.46870996060000       -0.17465734120000        0.41859759780000
C            1.99957109300000       -1.21059341810000       -0.21170898570000
F            1.44405835790000       -1.94453330820000       -1.15855659020000
F            3.24245576700000       -1.62856855220000       -0.00076713960000
H            2.32890734730000        3.68491004660000        1.47740226810000
H            1.44508968770000        2.29285159320000        2.27126961500000
H            1.03754150780000        3.37661653570000       -0.56134949610000
H           -1.63142493420000        3.19528140580000       -0.25008472980000
H           -3.49568920250000        1.58221497130000       -0.51597208690000
H            2.10727080530000        0.35253011410000        1.10719163440000
$end

$rem
BASIS = 6-31G*
GUI = 2
METHOD = B3LYP
PRINT_ORBITALS false
MOLDEN_FORMAT false
$end
--------------------------------------------------------------
 ----------------------------------------------------------------
             Standard Nuclear Orientation (Angstroms)
    I     Atom           X                Y                Z
 ----------------------------------------------------------------
    1      C      -0.6465352172     3.3804687750    -0.6366309757
    2      C      -0.0194361921     2.7550780336     0.3451130740
    3      C       0.6588334244     1.4532909064     0.2113717562
    4      C       2.0274685118     1.4009402894     0.4537186380
    5      C       2.7395663704     0.2239983478     0.3256721853
    6      C       2.0704825042    -0.9262032851    -0.0498512872
    7      F       2.7507487372    -2.0728727172    -0.2041571587
    8      C       0.7001008299    -0.9014526722    -0.2677155464
    9      F       0.0819325848    -2.0251966362    -0.6630304806
   10      C      -0.0307642820     0.2792119629    -0.1280947888
   11      C      -1.4836930670     0.2781293416    -0.3084110347
   12      C      -2.3021737540    -0.6566016389     0.1483502221
   13      F      -1.9876984275    -1.7129169841     0.8757330015
   14      F      -3.6179562773    -0.6175698835    -0.0281571756
   15      H      -1.0941745904     4.3488532150    -0.4948240124
   16      H      -0.7181198710     2.9609068997    -1.6268017647
   17      H       0.0782611899     3.2241273340     1.3161330302
   18      H       2.5426607784     2.3067250546     0.7345337022
   19      H       3.8018143579     0.1831781015     0.5037929985
   20      H      -1.9367761892     1.1120550212    -0.8174610892
 ----------------------------------------------------------------
 Molecular Point Group                 C1    NOp =  1
 Largest Abelian Subgroup              C1    NOp =  1
 Nuclear Repulsion Energy =         877.12936764 hartrees
 There are       51 alpha and       51 beta electrons
 Requested basis set is 6-31G(d)
 There are 68 shells and 222 basis functions

 Total QAlloc Memory Limit   8000 MB
 Mega-Array Size       188 MB
 MEM_STATIC part       192 MB
 A cutoff of  1.0D-08 yielded   1592 shell pairs
 There are     18214 function pairs
 Smallest overlap matrix eigenvalue = 3.30E-04

 Scale SEOQF with 1.000000e-01/1.000000e-01/1.000000e-01

 Standard Electronic Orientation quadrupole field applied
 Nucleus-field energy     =     0.0000000332 hartrees
 Guess from superposition of atomic densities
 Warning:  Energy on first SCF cycle will be non-variational
 SAD guess density has 102.000000 electrons

 -----------------------------------------------------------------------
  General SCF calculation program by
  Eric Jon Sundstrom, Paul Horn, Yuezhi Mao, Dmitri Zuev, Alec White,
  David Stuck, Shaama M.S., Shane Yost, Joonho Lee, David Small,
  Daniel Levine, Susi Lehtola, Hugh Burton, Evgeny Epifanovsky,
  Bang C. Huynh
 -----------------------------------------------------------------------
 Exchange:     0.2000 Hartree-Fock + 0.0800 Slater + 0.7200 B88
 Correlation:  0.1900 VWN1RPA + 0.8100 LYP
 Using SG-1 standard quadrature grid
 A restricted SCF calculation will be
 performed using DIIS
 SCF converges when DIIS error is below 1.0e-05
 ---------------------------------------
  Cycle       Energy         DIIS error
 ---------------------------------------
    1    -787.0317489782      5.24e-02  
    2    -783.7633423509      5.84e-03  
    3    -783.5329071741      8.34e-03  
    4    -783.9443907735      1.71e-03  
    5    -783.9616277320      5.77e-04  
    6    -783.9632442594      2.55e-04  
    7    -783.9636551494      4.78e-05  
    8    -783.9636668900      1.92e-05  
    9    -783.9636692960      3.62e-06  Convergence criterion met
 ---------------------------------------
 SCF time:   CPU 50.94s  wall 51.00s 
 SCF   energy in the final basis set =     -783.9636692960
 Total energy in the final basis set =     -783.9636692960
 
 --------------------------------------------------------------
 
                    Orbital Energies (a.u.)
 --------------------------------------------------------------
 
 Alpha MOs
 -- Occupied --
-24.7408 -24.7362 -24.7163 -24.7146 -10.3597 -10.2820 -10.2810 -10.2220
-10.2110 -10.2049 -10.2041 -10.2032 -10.2023 -10.1927  -1.2870  -1.2357
 -1.2260  -1.2212  -0.8880  -0.8174  -0.8028  -0.7532  -0.7392  -0.6612
 -0.6363  -0.6220  -0.5887  -0.5730  -0.5592  -0.5412  -0.5264  -0.5180
 -0.4980  -0.4845  -0.4805  -0.4612  -0.4522  -0.4446  -0.4393  -0.4374
 -0.4298  -0.4154  -0.4089  -0.3992  -0.3693  -0.3625  -0.3512  -0.2974
 -0.2834  -0.2424  -0.2343
 -- Virtual --
 -0.0336  -0.0184   0.0192   0.0456   0.0747   0.1092   0.1193   0.1365
  0.1465   0.1570   0.1693   0.1785   0.1845   0.2106   0.2245   0.2668
  0.3110   0.3276   0.3361   0.3560   0.3738   0.4060   0.4205   0.4617
  0.4831   0.4885   0.5075   0.5119   0.5227   0.5259   0.5537   0.5564
  0.5580   0.5758   0.5807   0.5815   0.5974   0.6061   0.6229   0.6415
  0.6606   0.6760   0.6778   0.6918   0.7120   0.7401   0.7756   0.7972
  0.8306   0.8421   0.8470   0.8640   0.8771   0.8946   0.9049   0.9067
  0.9397   0.9462   0.9770   0.9813   1.0207   1.0556   1.0598   1.1070
  1.1160   1.1408   1.1499   1.1681   1.1790   1.1864   1.2034   1.2252
  1.2383   1.2560   1.2816   1.3098   1.3344   1.3522   1.3710   1.3838
  1.4059   1.4196   1.4345   1.4487   1.4620   1.4719   1.4796   1.4952
  1.5291   1.5584   1.6085   1.6358   1.6779   1.6916   1.7185   1.7456
  1.7649   1.7730   1.7888   1.7957   1.8031   1.8305   1.8362   1.8497
  1.8602   1.8665   1.8861   1.8962   1.9029   1.9447   1.9741   1.9831
  1.9942   2.0047   2.0149   2.0300   2.0569   2.0825   2.0951   2.1099
  2.1430   2.1521   2.1716   2.2025   2.2282   2.2538   2.2702   2.2843
  2.3116   2.3333   2.3655   2.3822   2.4131   2.4286   2.5000   2.5320
  2.5328   2.5668   2.5833   2.6042   2.6459   2.6670   2.7231   2.7280
  2.7567   2.8038   2.8272   2.8654   2.9418   2.9823   3.0323   3.0520
  3.1255   3.1481   3.2111   3.3371   3.4688   4.0500   4.0947   4.0974
  4.1081   4.1459   4.2674   4.3023   4.4123   4.4337   4.6863   4.7351
  4.9602   5.3107   6.2414
 --------------------------------------------------------------
 
          Ground-State Mulliken Net Atomic Charges

     Atom                 Charge (a.u.)
  ----------------------------------------
      1 C                    -0.324874
      2 C                    -0.141068
      3 C                     0.077250
      4 C                    -0.176236
      5 C                    -0.199868
      6 C                     0.325896
      7 F                    -0.282843
      8 C                     0.253138
      9 F                    -0.277687
     10 C                     0.038198
     11 C                    -0.314243
     12 C                     0.575460
     13 F                    -0.228200
     14 F                    -0.244117
     15 H                     0.150488
     16 H                     0.151414
     17 H                     0.149408
     18 H                     0.140349
     19 H                     0.154126
     20 H                     0.173410
  ----------------------------------------
  Sum of atomic charges =     0.000000

 -----------------------------------------------------------------
                    Cartesian Multipole Moments
 -----------------------------------------------------------------
    Charge (ESU x 10^10)
                 0.0000
    Dipole Moment (Debye)
         X       0.5466      Y       2.9368      Z       0.2564
       Tot       2.9982
    Quadrupole Moments (Debye-Ang)
        XX     -74.9016     XY       0.7387     YY     -74.7820
        XZ       2.6938     YZ       0.2549     ZZ     -74.9436
    Octopole Moments (Debye-Ang^2)
       XXX       1.8298    XXY      -4.1214    XYY     -16.7474
       YYY     -25.7791    XXZ       3.8058    XYZ       3.7243
       YYZ       3.9557    XZZ     -10.3223    YZZ     -13.7157
       ZZZ      -1.2718
    Hexadecapole Moments (Debye-Ang^3)
      XXXX   -1624.6672   XXXY      21.1560   XXYY    -510.2609
      XYYY     -15.2021   YYYY   -1317.3548   XXXZ       3.3841
      XXYZ       3.8596   XYYZ      11.8341   YYYZ      11.5781
      XXZZ    -300.9987   XYZZ      -4.5386   YYZZ    -245.4341
      XZZZ     -19.8179   YZZZ       1.0742   ZZZZ    -159.8619
 -----------------------------------------------------------------
 Total job time:  54.74s(wall), 51.42s(cpu) 
 Fri Aug 12 13:12:37 2022

        *************************************************************
        *                                                           *
        *  Thank you very much for using Q-Chem.  Have a nice day.  *
        *                                                           *
        *************************************************************


