24
 energy: -36.571819157522 gnorm: 0.000128636627 xtb: 6.4.1 (23d549d)
C        -3.71312649960000    1.70776375580000    0.00139772330000
C        -2.88499260310000    0.66789024530000   -0.00239279970000
C        -1.43338711890000    0.72014038220000   -0.00041706800000
C        -0.69664231290000    1.88903620440000    0.00038737380000
C         0.69661853260000    1.88904451380000    0.00037614570000
C         1.43337922140000    0.72015702740000   -0.00043770650000
C         2.88498439920000    0.66792380720000   -0.00239886340000
C         3.71309852020000    1.70778935360000    0.00139478810000
C         0.71174937060000   -0.50851877450000   -0.00012911700000
N         1.39061949280000   -1.67406855780000    0.00023770350000
C         0.70358623580000   -2.78372520190000    0.00084078010000
C        -0.70354921500000   -2.78373374390000    0.00082706720000
N        -1.39059647390000   -1.67408570090000    0.00022164730000
C        -0.71174128660000   -0.50852724020000   -0.00012982910000
H        -4.78039179200000    1.56811529150000   -0.00093203830000
H        -3.37372372380000    2.72996060520000    0.00726351740000
H        -3.28262402660000   -0.33755674370000   -0.00760808960000
H        -1.20846643260000    2.83934141310000    0.00072996490000
H         1.20843034660000    2.83935922170000    0.00073690980000
H         3.28262718330000   -0.33753169420000   -0.00744635080000
H         3.37368356300000    2.72996493940000    0.00727907410000
H         4.78036744570000    1.56816336460000   -0.00099160100000
H         1.26951899650000   -3.70610610940000    0.00137128430000
H        -1.26947026910000   -3.70612157790000    0.00133517280000
