
Running Job 1 of 1 fragments/A008/conf-0/spe_input.inp
qchem fragments/A008/conf-0/spe_input.inp_355812.0 /gpfs/fs0/scratch/a/aspuru/rhickman/descriptor_computation/qchem355812/ 0
/scinet/niagara/software/commercial/qc52/exe/qcprog.exe_s fragments/A008/conf-0/spe_input.inp_355812.0 /gpfs/fs0/scratch/a/aspuru/rhickman/descriptor_computation/qchem355812/
                  Welcome to Q-Chem
     A Quantum Leap Into The Future Of Chemistry


 Q-Chem 5.2, Q-Chem, Inc., Pleasanton, CA (2019)

 License issued to: SRG Alan Aspuru-Guzik, University of Toronto

 Yihan Shao,  Zhengting Gan,  E. Epifanovsky,  A. T. B. Gilbert,  M. Wormit,  
 J. Kussmann,  A. W. Lange,  A. Behn,  Jia Deng,  Xintian Feng,  D. Ghosh,  
 M. Goldey,  P. R. Horn,  L. D. Jacobson,  I. Kaliman,  T. Kus,  A. Landau,  
 Jie Liu,  E. I. Proynov,  R. M. Richard,  R. P. Steele,  E. J. Sundstrom,  
 H. L. Woodcock III,  P. M. Zimmerman,  D. Zuev,  B. Albrecht,  E. Alguire,  
 S. A. Baeppler,  D. Barton,  Z. Benda,  Y. A. Bernard,  E. J. Berquist,  
 K. B. Bravaya,  H. Burton,  D. Casanova,  Chun-Min Chang,  Yunqing Chen,  
 A. Chien,  K. D. Closser,  M. P. Coons,  S. Coriani,  S. Dasgupta,  
 A. L. Dempwolff,  M. Diedenhofen,  Hainam Do,  R. G. Edgar,  Po-Tung Fang,  
 S. Faraji,  S. Fatehi,  Qingguo Feng,  K. D. Fenk,  J. Fosso-Tande,  
 J. Gayvert,  Qinghui Ge,  A. Ghysels,  G. Gidofalvi,  J. Gomes,  
 J. Gonthier,  A. Gunina,  D. Hait,  M. W. D. Hanson-Heine,  
 P. H. P. Harbach,  A. W. Hauser,  M. F. Herbst,  J. E. Herr,  
 E. G. Hohenstein,  Z. C. Holden,  Kerwin Hui,  B. C. Huynh,  T.-C. Jagau,  
 Hyunjun Ji,  B. Kaduk,  K. Khistyaev,  Jaehoon Kim,  P. Klunzinger,  K. Koh,  
 D. Kosenkov,  L. Koulias,  T. Kowalczyk,  C. M. Krauter,  A. Kunitsa,  
 Ka Un Lao,  A. Laurent,  K. V. Lawler,  Joonho Lee,  D. Lefrancois,  
 S. Lehtola,  D. S. Levine,  Yi-Pei Li,  You-Sheng Lin,  Fenglai Liu,  
 E. Livshits,  A. Luenser,  P. Manohar,  E. Mansoor,  S. F. Manzer,  
 Shan-Ping Mao,  Yuezhi Mao,  N. Mardirossian,  A. V. Marenich,  
 T. Markovich,  L. A. Martinez-Martinez,  S. A. Maurer,  N. J. Mayhall,  
 S. C. McKenzie,  J.-M. Mewes,  P. Morgante,  A. F. Morrison,  
 J. W. Mullinax,  K. Nanda,  T. S. Nguyen-Beck,  R. Olivares-Amaya,  
 J. A. Parkhill,  Zheng Pei,  T. M. Perrine,  F. Plasser,  P. Pokhilko,  
 S. Prager,  A. Prociuk,  E. Ramos,  D. R. Rehn,  F. Rob,  M. Scheurer,  
 M. Schneider,  N. Sergueev,  S. M. Sharada,  S. Sharma,  D. W. Small,  
 T. Stauch,  T. Stein,  Yu-Chuan Su,  A. J. W. Thom,  A. Tkatchenko,  
 T. Tsuchimochi,  N. M. Tubman,  L. Vogt,  M. L. Vidal,  O. Vydrov,  
 M. A. Watson,  J. Wenzel,  M. de Wergifosse,  T. A. Wesolowski,  A. White,  
 J. Witte,  A. Yamada,  Jun Yang,  K. Yao,  S. Yeganeh,  S. R. Yost,  
 Zhi-Qiang You,  A. Zech,  Igor Ying Zhang,  Xing Zhang,  Yan Zhao,  
 Ying Zhu,  B. R. Brooks,  G. K. L. Chan,  C. J. Cramer,  M. S. Gordon,  
 W. J. Hehre,  A. Klamt,  M. W. Schmidt,  C. D. Sherrill,  D. G. Truhlar,  
 A. Aspuru-Guzik,  R. Baer,  A. T. Bell,  N. A. Besley,  Jeng-Da Chai,  
 A. E. DePrince, III,  R. A. DiStasio Jr.,  A. Dreuw,  B. D. Dunietz,  
 T. R. Furlani,  Chao-Ping Hsu,  Yousung Jung,  Jing Kong,  D. S. Lambrecht,  
 WanZhen Liang,  C. Ochsenfeld,  V. A. Rassolov,  L. V. Slipchenko,  
 J. E. Subotnik,  T. Van Voorhis,  J. M. Herbert,  A. I. Krylov,  
 P. M. W. Gill,  M. Head-Gordon

 Contributors to earlier versions of Q-Chem not listed above: 
 R. D. Adamson,  B. Austin,  J. Baker,  G. J. O. Beran,  K. Brandhorst,  
 S. T. Brown,  E. F. C. Byrd,  A. K. Chakraborty,  C.-L. Cheng,  
 Siu Hung Chien,  D. M. Chipman,  D. L. Crittenden,  H. Dachsel,  
 R. J. Doerksen,  A. D. Dutoi,  L. Fusti-Molnar,  W. A. Goddard III,  
 A. Golubeva-Zadorozhnaya,  S. R. Gwaltney,  G. Hawkins,  A. Heyden,  
 S. Hirata,  G. Kedziora,  F. J. Keil,  C. Kelley,  Jihan Kim,  R. A. King,  
 R. Z. Khaliullin,  P. P. Korambath,  W. Kurlancheek,  A. M. Lee,  M. S. Lee,  
 S. V. Levchenko,  Ching Yeh Lin,  D. Liotard,  R. C. Lochan,  I. Lotan,  
 P. E. Maslen,  N. Nair,  D. P. O'Neill,  D. Neuhauser,  E. Neuscamman,  
 C. M. Oana,  R. Olson,  B. Peters,  R. Peverati,  P. A. Pieniazek,  
 Y. M. Rhee,  J. Ritchie,  M. A. Rohrdanz,  E. Rosta,  N. J. Russ,  
 H. F. Schaefer III,  N. E. Schultz,  N. Shenvi,  A. C. Simmonett,  A. Sodt,  
 D. Stuck,  K. S. Thanthiriwatte,  V. Vanovschi,  Tao Wang,  A. Warshel,  
 C. F. Williams,  Q. Wu,  X. Xu,  W. Zhang

 Please cite Q-Chem as follows:
 Y. Shao et al., Mol. Phys. 113, 184-215 (2015)
 DOI: 10.1080/00268976.2014.952696

 Q-Chem 5.2.1 for Intel X86 EM64T Linux

 Parts of Q-Chem use Armadillo 8.300.2 (Tropical Shenanigans).
 http://arma.sourceforge.net/

 Q-Chem begins on Tue Feb  8 16:23:55 2022  

Host: 
0

     Scratch files written to /gpfs/fs0/scratch/a/aspuru/rhickman/descriptor_computation/qchem355812//
 Jul1719 |scratch|qcdevops|jenkins|workspace|build_RNUM -1
Processing $rem in /scinet/niagara/software/commercial/qc52/config/preferences:
	 MEM_TOTAL  4000 
NAlpha2: 158
NElect   158
Mult     1

Checking the input file for inconsistencies... 	...done.

--------------------------------------------------------------
User input:
--------------------------------------------------------------
$molecule
0 1
F        -6.19754544300000   -1.11676434670000   -0.08004991380000
C        -4.94949001550000   -0.64369658970000   -0.05141732620000
F        -4.99786771230000    0.68363982350000    0.01398243850000
C        -3.87982518850000   -1.42480329680000   -0.08514919730000
C        -2.47751013190000   -1.04568866220000   -0.05999933120000
C        -2.04739219060000    0.27803684330000   -0.00888666260000
C        -0.68871847670000    0.54265828630000    0.01629394540000
C         0.07143038140000    1.76164251360000    0.04792524870000
C        -0.27918779440000    3.10443386710000    0.09180895680000
C         0.72772780530000    4.04780209180000    0.13679093780000
C         2.06757019030000    3.66619450040000    0.15309885490000
C         2.44059128520000    2.33629984840000    0.11004816030000
C         1.43349709770000    1.38475815550000    0.04115843100000
N         1.52586507920000    0.00547540140000    0.01215112430000
C         2.71668168660000   -0.73677738100000   -0.00435875120000
C         2.90996559020000   -1.76792105430000    0.90987254250000
C         4.08279337900000   -2.49976663170000    0.88575579840000
C         5.07144906010000   -2.20491534620000   -0.03825105300000
C         4.88196815740000   -1.17559268660000   -0.94536598120000
C         3.70844834950000   -0.44459955610000   -0.93576284250000
C         0.25224747260000   -0.51472333100000   -0.00107957770000
C        -0.17010316420000   -1.83582633670000   -0.07632775040000
C        -1.52547496720000   -2.07992626520000   -0.10078090640000
H        -4.09257095360000   -2.48301805510000   -0.13714389070000
H        -2.74930105370000    1.09472202510000    0.00636856010000
H        -1.31775190230000    3.39798289640000    0.09494125950000
H         0.47821090090000    5.09774972920000    0.16908950860000
H         2.83255814930000    4.42681991940000    0.20416276390000
H         3.48101547570000    2.04989709490000    0.14062827060000
H         2.14568448950000   -1.97991715100000    1.64265350780000
H         4.22842140720000   -3.29874147960000    1.59751149590000
H         5.98746128220000   -2.77582222450000   -0.05131394390000
H         5.64863989290000   -0.94521605040000   -1.67013624200000
H         3.54729358330000    0.34454253710000   -1.65492576080000
H         0.53849244130000   -2.64856338870000   -0.12580551700000
H        -1.87234736480000   -3.10126179720000   -0.15693872340000
$end

$rem
BASIS = 6-31G*
GUI = 2
METHOD = B3LYP
PRINT_ORBITALS false
MOLDEN_FORMAT false
--------------------------------------------------------------
 ----------------------------------------------------------------
             Standard Nuclear Orientation (Angstroms)
    I     Atom           X                Y                Z
 ----------------------------------------------------------------
    1      F       6.2848219622    -1.1521691550     0.0918175634
    2      C       5.0396024081    -0.6718833866     0.0600509042
    3      F       5.0958558097     0.6549096038    -0.0099162300
    4      C       3.9653271643    -1.4465726298     0.0952311020
    5      C       2.5652945625    -1.0593197630     0.0670909025
    6      C       2.1430229807     0.2667221870     0.0108537230
    7      C       0.7859581579     0.5392281493    -0.0168662876
    8      C       0.0330232818     1.7625373473    -0.0536501262
    9      C       0.3915773845     3.1030851801    -0.1017954022
   10      C      -0.6097238338     4.0521872943    -0.1512631463
   11      C      -1.9517655947     3.6783997004    -0.1678361768
   12      C      -2.3326454526     2.3508769175    -0.1205955198
   13      C      -1.3312416520     1.3936839548    -0.0471914947
   14      N      -1.4317472322     0.0150770923    -0.0134879214
   15      C      -2.6269236083    -0.7201078198     0.0041907764
   16      C      -2.8251939138    -1.7532845802    -0.9066711606
   17      C      -4.0023295364    -2.4781416064    -0.8814004972
   18      C      -4.9903158386    -2.1742651455     0.0403956630
   19      C      -4.7958508410    -1.1429118716     0.9441431012
   20      C      -3.6180452016    -0.4188606597     0.9333897391
   21      C      -0.1612249021    -0.5125424398     0.0030716257
   22      C       0.2532666880    -1.8358320659     0.0834257604
   23      C       1.6071511044    -2.0878001427     0.1103428813
   24      H       4.1717897070    -2.5058304624     0.1511662961
   25      H       2.8497363211     1.0792131830    -0.0064117298
   26      H       1.4318515470     3.3905176021    -0.1047142578
   27      H      -0.3540036304     5.1005323996    -0.1869232398
   28      H      -2.7122102829     4.4433213523    -0.2224609950
   29      H      -3.3746982271     2.0704838153    -0.1514159658
   30      H      -2.0613149951    -1.9723224826    -1.6377985668
   31      H      -4.1518173770    -3.2787278363    -1.5905405235
   32      H      -5.9096818199    -2.7397339377     0.0543574482
   33      H      -5.5620029666    -0.9055077907     1.6671929600
   34      H      -3.4530973498     0.3718277300     1.6499896844
   35      H      -0.4601501129    -2.6442162639     0.1348918066
   36      H       1.9479497210    -3.1109527130     0.1704723285
 ----------------------------------------------------------------
 Molecular Point Group                 C1    NOp =  1
 Largest Abelian Subgroup              C1    NOp =  1
 Nuclear Repulsion Energy =        1737.35034047 hartrees
 There are       79 alpha and       79 beta electrons
 Requested basis set is 6-31G(d)
 There are 118 shells and 371 basis functions

 Total QAlloc Memory Limit   4000 MB
 Mega-Array Size       188 MB
 MEM_STATIC part       192 MB
 A cutoff of  1.0D-08 yielded   3486 shell pairs
 There are     37383 function pairs
 Smallest overlap matrix eigenvalue = 2.59E-04

 Scale SEOQF with 1.000000e-02/1.000000e-01/1.000000e-01

 Standard Electronic Orientation quadrupole field applied
 Nucleus-field energy     =     0.0000000451 hartrees
 Guess from superposition of atomic densities
 Warning:  Energy on first SCF cycle will be non-variational
 SAD guess density has 158.000000 electrons

 -----------------------------------------------------------------------
  General SCF calculation program by
  Eric Jon Sundstrom, Paul Horn, Yuezhi Mao, Dmitri Zuev, Alec White,
  David Stuck, Shaama M.S., Shane Yost, Joonho Lee, David Small,
  Daniel Levine, Susi Lehtola, Hugh Burton, Evgeny Epifanovsky,
  Bang C. Huynh
 -----------------------------------------------------------------------
 Exchange:     0.2000 Hartree-Fock + 0.0800 Slater + 0.7200 B88
 Correlation:  0.1900 VWN1RPA + 0.8100 LYP
 Using SG-1 standard quadrature grid
 A restricted SCF calculation will be
 performed using DIIS
 SCF converges when DIIS error is below 1.0e-05
 ---------------------------------------
  Cycle       Energy         DIIS error
 ---------------------------------------
    1   -1030.5156640380      4.33e-02  
    2   -1024.0601987780      4.23e-03  
    3   -1023.8314644457      5.63e-03  
    4   -1024.3474184074      1.45e-03  
    5   -1024.3820933533      4.85e-04  
    6   -1024.3858186856      2.25e-04  
    7   -1024.3866992318      5.22e-05  
    8   -1024.3867405933      2.17e-05  
    9   -1024.3867493375      4.81e-06  Convergence criterion met
 ---------------------------------------
 SCF time:   CPU 104.96s  wall 106.00s 
 SCF   energy in the final basis set =    -1024.3867493375
 Total energy in the final basis set =    -1024.3867493375
 
 --------------------------------------------------------------
 
                    Orbital Energies (a.u.)
 --------------------------------------------------------------
 
 Alpha MOs
 -- Occupied --
-24.7369 -24.7257 -14.3846 -10.3467 -10.2389 -10.2228 -10.2219 -10.1996
-10.1995 -10.1988 -10.1987 -10.1968 -10.1963 -10.1958 -10.1882 -10.1875
-10.1864 -10.1857 -10.1854 -10.1850 -10.1846 -10.1844 -10.1783  -1.2765
 -1.2159  -1.0043  -0.8788  -0.8570  -0.8476  -0.8065  -0.7841  -0.7630
 -0.7590  -0.7462  -0.7205  -0.7161  -0.6591  -0.6359  -0.6236  -0.6216
 -0.6016  -0.5827  -0.5807  -0.5619  -0.5454  -0.5257  -0.5216  -0.5106
 -0.5090  -0.4838  -0.4749  -0.4654  -0.4534  -0.4473  -0.4406  -0.4372
 -0.4357  -0.4332  -0.4326  -0.4231  -0.4165  -0.4119  -0.4036  -0.3817
 -0.3790  -0.3709  -0.3655  -0.3614  -0.3595  -0.3418  -0.3345  -0.3344
 -0.2932  -0.2763  -0.2649  -0.2617  -0.2374  -0.2127  -0.1907
 -- Virtual --
 -0.0276  -0.0200  -0.0118  -0.0092   0.0254   0.0441   0.0840   0.0864
  0.0920   0.1052   0.1309   0.1340   0.1374   0.1447   0.1506   0.1574
  0.1660   0.1690   0.1775   0.1793   0.1873   0.1882   0.1982   0.2067
  0.2117   0.2245   0.2362   0.2662   0.2689   0.2814   0.2825   0.2984
  0.3055   0.3177   0.3260   0.3433   0.3494   0.3614   0.3850   0.3854
  0.4154   0.4421   0.4532   0.4599   0.4714   0.4961   0.5014   0.5137
  0.5200   0.5255   0.5332   0.5344   0.5384   0.5482   0.5522   0.5546
  0.5608   0.5673   0.5700   0.5775   0.5799   0.5839   0.5858   0.5893
  0.5947   0.5986   0.6015   0.6033   0.6097   0.6119   0.6175   0.6216
  0.6232   0.6249   0.6288   0.6367   0.6389   0.6482   0.6609   0.6639
  0.6894   0.7050   0.7142   0.7312   0.7566   0.7796   0.7875   0.7929
  0.8001   0.8147   0.8262   0.8299   0.8353   0.8385   0.8417   0.8487
  0.8530   0.8583   0.8629   0.8714   0.8864   0.8947   0.8985   0.9087
  0.9117   0.9209   0.9430   0.9522   0.9620   0.9682   0.9881   0.9988
  1.0010   1.0081   1.0245   1.0290   1.0433   1.0719   1.0805   1.0948
  1.1170   1.1300   1.1439   1.1529   1.1629   1.1678   1.1694   1.1849
  1.2000   1.2049   1.2064   1.2228   1.2330   1.2404   1.2581   1.2702
  1.2811   1.3082   1.3271   1.3376   1.3468   1.3562   1.3597   1.3970
  1.4112   1.4132   1.4251   1.4273   1.4408   1.4485   1.4544   1.4610
  1.4641   1.4686   1.4727   1.4822   1.4897   1.4942   1.5024   1.5037
  1.5062   1.5801   1.6099   1.6293   1.6391   1.6665   1.6861   1.7120
  1.7225   1.7600   1.7643   1.7758   1.7807   1.7962   1.8062   1.8231
  1.8267   1.8369   1.8442   1.8519   1.8687   1.8727   1.8851   1.8923
  1.8992   1.9187   1.9313   1.9334   1.9397   1.9612   1.9725   1.9800
  1.9829   1.9999   2.0043   2.0137   2.0345   2.0459   2.0522   2.0723
  2.0793   2.0860   2.1038   2.1188   2.1369   2.1438   2.1498   2.1544
  2.1617   2.1818   2.1964   2.2120   2.2138   2.2394   2.2421   2.2563
  2.2660   2.2768   2.2854   2.3068   2.3098   2.3110   2.3327   2.3433
  2.3572   2.3998   2.4039   2.4309   2.4688   2.5066   2.5256   2.5280
  2.5548   2.5652   2.5848   2.5976   2.6011   2.6323   2.6398   2.6674
  2.6735   2.6772   2.6859   2.7060   2.7256   2.7330   2.7368   2.7480
  2.7583   2.7706   2.7925   2.8239   2.8386   2.8627   2.8743   2.9038
  2.9243   2.9572   2.9884   3.0033   3.0727   3.1436   3.1974   3.2620
  3.2885   3.3858   3.4103   3.4821   3.5701   4.0869   4.0910   4.0986
  4.1076   4.1154   4.1216   4.1541   4.1651   4.1779   4.1942   4.2802
  4.3071   4.3405   4.3863   4.3967   4.4479   4.4893   4.5460   4.7225
  4.7801   4.8060   4.8915   5.2898
 --------------------------------------------------------------
 
          Ground-State Mulliken Net Atomic Charges

     Atom                 Charge (a.u.)
  ----------------------------------------
      1 F                    -0.254493
      2 C                     0.538655
      3 F                    -0.239093
      4 C                    -0.301819
      5 C                     0.185427
      6 C                    -0.271186
      7 C                     0.063276
      8 C                     0.059340
      9 C                    -0.193572
     10 C                    -0.145677
     11 C                    -0.138585
     12 C                    -0.176673
     13 C                     0.310655
     14 N                    -0.733548
     15 C                     0.277489
     16 C                    -0.154870
     17 C                    -0.140820
     18 C                    -0.120779
     19 C                    -0.140749
     20 C                    -0.154330
     21 C                     0.318430
     22 C                    -0.175024
     23 C                    -0.209653
     24 H                     0.155220
     25 H                     0.141065
     26 H                     0.132550
     27 H                     0.123093
     28 H                     0.125863
     29 H                     0.139572
     30 H                     0.152169
     31 H                     0.137446
     32 H                     0.133540
     33 H                     0.137590
     34 H                     0.152889
     35 H                     0.141480
     36 H                     0.125124
  ----------------------------------------
  Sum of atomic charges =     0.000000

 -----------------------------------------------------------------
                    Cartesian Multipole Moments
 -----------------------------------------------------------------
    Charge (ESU x 10^10)
                 0.0000
    Dipole Moment (Debye)
         X      -2.9720      Y      -1.2497      Z       0.0359
       Tot       3.2242
    Quadrupole Moments (Debye-Ang)
        XX    -123.4254     XY       2.8197     YY    -117.7284
        XZ      -1.7411     YZ       2.4097     ZZ    -130.5989
    Octopole Moments (Debye-Ang^2)
       XXX     -43.5797    XXY     -18.3352    XYY      21.2024
       YYY      -0.9299    XXZ      14.6203    XYZ      -8.8635
       YYZ      -9.7057    XZZ      23.1144    YZZ      -8.6251
       ZZZ       1.2150
    Hexadecapole Moments (Debye-Ang^3)
      XXXX   -7686.4159   XXXY     131.4413   XXYY   -1635.0409
      XYYY     -38.4350   YYYY   -2815.8601   XXXZ     -94.6986
      XXYZ      21.6382   XYYZ      40.1127   YYYZ      13.6108
      XXZZ   -1295.8970   XYZZ      10.9976   YYZZ    -582.4060
      XZZZ      -5.3872   YZZZ      14.2668   ZZZZ    -280.5809
 -----------------------------------------------------------------
Archival summary:
1\1\nia2015.scinet.local\SP\ProcedureUnspecified\6-31G*\212013\rhickman\TueFeb816:25:412022TueFeb816:25:412022\0\\#,ProcedureUnspecified,6-31G*,\\0,1\N\C,1,1.37582\C,1,1.38268,2,108.393\C,3,1.38723,1,129.553,2,177.482,0\H,4,1.07956,3,121.271,1,0.620874,0\C,4,1.38189,3,117.756,1,-178.688,0\H,6,1.07998,4,119.213,3,-179.83,0\C,2,1.38901,1,129.912,3,177.495,0\H,8,1.0794,2,121.266,1,0.691467,0\C,8,1.37739,2,117.951,1,-178.615,0\H,10,1.08009,8,118.981,2,-179.868,0\C,6,1.39322,4,121.522,3,0.394829,0\H,12,1.07967,6,119.226,4,-179.834,0\C,12,1.38052,6,120.973,4,0.731033,0\H,14,1.07926,12,121.059,6,179.019,0\C,14,1.38851,12,118.535,6,-0.708175,0\C,1,1.4033,2,125.834,3,-179.854,0\C,17,1.39156,1,120.137,2,-51.2123,0\H,18,1.07983,17,119.538,1,-1.13895,0\C,18,1.38264,17,119.906,1,179.734,0\H,20,1.07989,18,119.638,17,179.973,0\C,20,1.38498,18,120.296,17,0.484044,0\H,22,1.07944,20,120.082,18,179.744,0\C,22,1.38501,20,119.836,18,-0.247204,0\H,24,1.07988,22,120.066,20,-179.743,0\C,24,1.3826,22,120.298,20,-0.242201,0\H,26,1.07977,24,120.561,22,-178.656,0\C,10,1.4063,8,122.365,2,0.362833,0\C,28,1.39279,10,119.404,8,0.780831,0\H,29,1.07698,28,121.33,10,178.947,0\C,29,1.38443,28,119.039,10,-0.747351,0\C,28,1.45288,10,117.453,8,-179.723,0\H,32,1.08064,28,116.512,10,-0.19856,0\C,32,1.32493,28,128.679,10,179.725,0\F,34,1.32983,32,128.248,28,0,0\F,34,1.33501,32,123.045,28,-179.977,0\\\@

 Total job time:  105.84s(wall), 105.33s(cpu) 
 Tue Feb  8 16:25:41 2022

        *************************************************************
        *                                                           *
        *  Thank you very much for using Q-Chem.  Have a nice day.  *
        *                                                           *
        *************************************************************


