
Running Job 1 of 1 tidas/B054/conf-2/spe_input.inp
qchem tidas/B054/conf-2/spe_input.inp_134498.0 /home/a/aspuru/seifridm/acdc_laser/descriptor_computation/qchem134498/ 0
/gpfs/fs1/scinet/niagara/software/commercial/qc54/exe/qcprog.exe_s tidas/B054/conf-2/spe_input.inp_134498.0 /home/a/aspuru/seifridm/acdc_laser/descriptor_computation/qchem134498/
                  Welcome to Q-Chem
     A Quantum Leap Into The Future Of Chemistry


 Q-Chem 5.4, Q-Chem, Inc., Pleasanton, CA (2021)

 License issued to: SRG Alan Aspuru-Guzik, University of Toronto

 E. Epifanovsky,  A. T. B. Gilbert,  Xintian Feng,  Joonho Lee,  Yuezhi Mao,  
 N. Mardirossian,  P. Pokhilko,  A. White,  M. Wormit,  M. P. Coons,  
 A. L. Dempwolff,  Zhengting Gan,  D. Hait,  P. R. Horn,  L. D. Jacobson,  
 I. Kaliman,  J. Kussmann,  A. W. Lange,  Ka Un Lao,  D. S. Levine,  Jie Liu,  
 S. C. McKenzie,  A. F. Morrison,  K. Nanda,  F. Plasser,  D. R. Rehn,  
 M. L. Vidal,  Zhi-Qiang You,  Ying Zhu,  B. Alam,  B. Albrecht,  
 A. Aldossary,  E. Alguire,  J. H. Andersen,  D. Barton,  K. Begam,  A. Behn,  
 Y. A. Bernard,  E. J. Berquist,  H. Burton,  A. Carreras,  K. Carter-Fenk,  
 Romit Chakraborty,  A. D. Chien,  K. D. Closser,  V. Cofer-Shabica,  
 S. Dasgupta,  Jia Deng,  M. de Wergifosse,  M. Diedenhofen,  Hainam Do,  
 S. Ehlert,  Po-Tung Fang,  S. Fatehi,  Qingguo Feng,  T. Friedhoff,  
 J. Gayvert,  Qinghui Ge,  G. Gidofalvi,  M. Goldey,  J. Gomes,  
 C. Gonzalez-Espinoza,  S. Gulania,  A. Gunina,  M. W. D. Hanson-Heine,  
 P. H. P. Harbach,  A. W. Hauser,  M. F. Herbst,  M. Hernandez Vera,  
 M. Hodecker,  Z. C. Holden,  S. Houck,  Xunkun Huang,  Kerwin Hui,  
 B. C. Huynh,  M. Ivanov,  Hyunjun Ji,  Hanjie Jiang,  B. Kaduk,  S. Kaehler,  
 K. Khistyaev,  Jaehoon Kim,  P. Klunzinger,  Z. Koczor-Benda,  
 Joong Hoon Koh,  D. Kosenkov,  L. Koulias,  T. Kowalczyk,  C. M. Krauter,  
 K. Kue,  A. Kunitsa,  T. Kus,  A. Landau,  K. V. Lawler,  D. Lefrancois,  
 S. Lehtola,  Rain Li,  Yi-Pei Li,  Jiashu Liang,  M. Liebenthal,  
 Hung-Hsuan Lin,  You-Sheng Lin,  Fenglai Liu,  Kuan-Yu Liu,  
 M. Loipersberger,  A. Luenser,  A. Manjanath,  P. Manohar,  E. Mansoor,  
 S. F. Manzer,  Shan-Ping Mao,  A. V. Marenich,  T. Markovich,  S. Mason,  
 S. A. Maurer,  P. F. McLaughlin,  M. F. S. J. Menger,  J.-M. Mewes,  
 S. A. Mewes,  P. Morgante,  J. W. Mullinax,  K. J. Oosterbaan,  G. Paran,  
 Alexander C. Paul,  Suranjan K. Paul,  F. Pavosevic,  Zheng Pei,  S. Prager,  
 E. I. Proynov,  E. Ramos,  B. Rana,  A. E. Rask,  A. Rettig,  R. M. Richard,  
 F. Rob,  E. Rossomme,  T. Scheele,  M. Scheurer,  M. Schneider,  
 N. Sergueev,  S. M. Sharada,  W. Skomorowski,  D. W. Small,  C. J. Stein,  
 Yu-Chuan Su,  E. J. Sundstrom,  Zhen Tao,  J. Thirman,  T. Tsuchimochi,  
 N. M. Tubman,  S. P. Veccham,  O. Vydrov,  J. Wenzel,  J. Witte,  A. Yamada,  
 Kun Yao,  S. Yeganeh,  S. R. Yost,  A. Zech,  Igor Ying Zhang,  Xing Zhang,  
 Yu Zhang,  D. Zuev,  A. Aspuru-Guzik,  A. T. Bell,  N. A. Besley,  
 K. B. Bravaya,  B. R. Brooks,  D. Casanova,  Jeng-Da Chai,  S. Coriani,  
 C. J. Cramer,  A. E. DePrince, III,  R. A. DiStasio Jr.,  A. Dreuw,  
 B. D. Dunietz,  T. R. Furlani,  W. A. Goddard III,  S. Grimme,  
 S. Hammes-Schiffer,  T. Head-Gordon,  W. J. Hehre,  Chao-Ping Hsu,  
 T.-C. Jagau,  Yousung Jung,  A. Klamt,  Jing Kong,  D. S. Lambrecht,  
 WanZhen Liang,  N. J. Mayhall,  C. W. McCurdy,  J. B. Neaton,  T. Neudecker,  
 C. Ochsenfeld,  J. A. Parkhill,  R. Peverati,  V. A. Rassolov,  Yihan Shao,  
 L. V. Slipchenko,  R. P. Steele,  J. E. Subotnik,  A. J. W. Thom,  
 A. Tkatchenko,  D. G. Truhlar,  T. Van Voorhis,  T. A. Wesolowski,  
 K. B. Whaley,  H. L. Woodcock III,  P. M. Zimmerman,  S. Faraji,  
 P. M. W. Gill,  M. Head-Gordon,  J. M. Herbert,  A. I. Krylov

 Additional authors since Version 5.4.0: 
 Chandrima Chakravarty,  L. Cunha,  R. Kang,  Yongbin Kim,  S. Kotaru,  
 Shaozhi Li,  Xiangyuan Li,  F. Matz,  A. Molle,  V. Parravicini,  
 Haisheng Ren,  Hengyuan Shen,  Yingli Su,  Hung-Yi Tsai,  C. Utku,  
 Fang Wang,  Jeff Yang,  F. Zeller

 Contributors to earlier versions of Q-Chem not listed above: 
 R. D. Adamson,  B. Austin,  R. Baer,  J. Baker,  G. J. O. Beran,  
 K. Brandhorst,  S. T. Brown,  E. F. C. Byrd,  Arup K. Chakraborty,  
 G. K. L. Chan,  Chun-Min Chang,  Yunqing Chen,  C.-L. Cheng,  
 Siu Hung Chien,  D. M. Chipman,  D. L. Crittenden,  H. Dachsel,  
 R. J. Doerksen,  A. D. Dutoi,  R. G. Edgar,  J. Fosso-Tande,  
 L. Fusti-Molnar,  D. Ghosh,  A. Ghysels,  A. Golubeva-Zadorozhnaya,  
 J. Gonthier,  M. S. Gordon,  S. R. Gwaltney,  G. Hawkins,  J. E. Herr,  
 A. Heyden,  S. Hirata,  E. G. Hohenstein,  G. Kedziora,  F. J. Keil,  
 C. Kelley,  Jihan Kim,  R. A. King,  R. Z. Khaliullin,  P. P. Korambath,  
 W. Kurlancheek,  A. Laurent,  A. M. Lee,  M. S. Lee,  S. V. Levchenko,  
 Ching Yeh Lin,  D. Liotard,  E. Livshits,  R. C. Lochan,  I. Lotan,  
 L. A. Martinez-Martinez,  P. E. Maslen,  N. Nair,  D. P. O'Neill,  
 D. Neuhauser,  E. Neuscamman,  C. M. Oana,  R. Olivares-Amaya,  R. Olson,  
 T. M. Perrine,  B. Peters,  P. A. Pieniazek,  A. Prociuk,  Y. M. Rhee,  
 J. Ritchie,  M. A. Rohrdanz,  E. Rosta,  N. J. Russ,  H. F. Schaefer III,  
 M. W. Schmidt,  N. E. Schultz,  S. Sharma,  N. Shenvi,  C. D. Sherrill,  
 A. C. Simmonett,  A. Sodt,  T. Stein,  D. Stuck,  K. S. Thanthiriwatte,  
 V. Vanovschi,  L. Vogt,  Tao Wang,  A. Warshel,  M. A. Watson,  
 C. F. Williams,  Q. Wu,  X. Xu,  Jun Yang,  W. Zhang,  Yan Zhao

   Please cite Q-Chem as follows:
  "Software for the frontiers of quantum chemistry:
   An overview of developments in the Q-Chem 5 package"
   J. Chem. Phys. 155, 084801 (2021)
   https://doi.org/10.1063/5.0055522 (open access)

 Q-Chem 5.4.2 for Intel X86 EM64T Linux

 Parts of Q-Chem use Armadillo 9.900.5 (Nocturnal Misbehaviour).
 http://arma.sourceforge.net/

 Q-Chem begins on Fri Aug 12 13:11:43 2022  

 Host: 
0

     Scratch files written to /home/a/aspuru/seifridm/acdc_laser/descriptor_computation/qchem134498//
 Dec1321 |scratch|qcdevops|jenkins|workspace|build_RNUM 6959   
 Processing $rem in /gpfs/fs1/scinet/niagara/software/commercial/qc54/config/preferences:
 Processing $rem in /home/a/aspuru/seifridm/.qchemrc:

 Checking the input file for inconsistencies... 	...done.

--------------------------------------------------------------
User input:
--------------------------------------------------------------
$molecule
0 1
C           -3.32826754070000        3.36961930350000       -0.01414968840000
C           -2.06994255610000        3.01639346450000       -0.24625762000000
C           -1.51268836160000        1.67023261450000       -0.17651727760000
C           -2.28508404600000        0.54307466480000        0.11134220430000
C           -1.73272348950000       -0.72463045850000        0.15432368810000
C           -2.55203644710000       -1.94525012040000        0.43432134870000
C           -0.36699656180000       -0.85154709370000       -0.08039592430000
F            0.16182372060000       -2.09279066170000       -0.09131587860000
C            0.44951317900000        0.24344461430000       -0.34898186630000
C            1.88623652350000        0.12106185300000       -0.58812091580000
C            2.71315517460000       -0.69480440320000        0.04530316480000
F            2.42857191590000       -1.51769346220000        1.03964600650000
F            4.01755941990000       -0.75364948350000       -0.21375884140000
C           -0.15164027910000        1.49732395900000       -0.41083607760000
H           -3.64190845540000        4.39626003520000       -0.09140940000000
H           -4.09361253310000        2.66491262080000        0.26135060790000
H           -1.35319862340000        3.78255811670000       -0.51493040830000
H           -3.34252319120000        0.64999893810000        0.29395151300000
H           -3.58847573750000       -1.68127759200000        0.62385871230000
H           -2.15424723220000       -2.47380126070000        1.29950215750000
H           -2.50864966550000       -2.62856040400000       -0.41304355000000
H            2.32244446350000        0.77565338070000       -1.32729318590000
H            0.46511663960000        2.35614628440000       -0.63177005740000
$end

$rem
BASIS = 6-31G*
GUI = 2
METHOD = B3LYP
PRINT_ORBITALS false
MOLDEN_FORMAT false
$end
--------------------------------------------------------------
 ----------------------------------------------------------------
             Standard Nuclear Orientation (Angstroms)
    I     Atom           X                Y                Z
 ----------------------------------------------------------------
    1      C       4.4178690284     1.2874538360    -0.2902510013
    2      C       3.1527258957     1.6318634192    -0.0833228862
    3      C       2.0069223613     0.7344521262     0.0132805222
    4      C       2.1230944003    -0.6552195676    -0.0592443637
    5      C       1.0204909747    -1.4833519089     0.0525070712
    6      C       1.1320225082    -2.9749350221     0.0042856563
    7      C      -0.2275542697    -0.8917815015     0.2223266539
    8      F      -1.2955639291    -1.7001241479     0.3847866951
    9      C      -0.3983275853     0.4886441775     0.2779578064
   10      C      -1.7059692487     1.1193118936     0.4472814778
   11      C      -2.8392880428     0.7201380266    -0.1067104033
   12      F      -3.0143824961    -0.2820561887    -0.9503930502
   13      F      -4.0000587241     1.3442556350     0.0807327556
   14      C       0.7404525983     1.2841473118     0.1897575131
   15      H       5.1951217345     2.0297604789    -0.3467307073
   16      H       4.7347832602     0.2663248104    -0.4132378382
   17      H       2.9081083129     2.6811319337     0.0267363218
   18      H       3.0936323672    -1.1059492532    -0.1928681305
   19      H       2.1609213851    -3.2815383748    -0.1605591066
   20      H       0.5085875559    -3.3721366369    -0.7955269073
   21      H       0.7776425131    -3.4079338427     0.9390313268
   22      H      -1.7507279795     2.0103608105     1.0548763789
   23      H       0.6273454717     2.3569656444     0.2449327782
 ----------------------------------------------------------------
 Molecular Point Group                 C1    NOp =  1
 Largest Abelian Subgroup              C1    NOp =  1
 Nuclear Repulsion Energy =         856.13943489 hartrees
 There are       51 alpha and       51 beta electrons
 Requested basis set is 6-31G(d)
 There are 74 shells and 228 basis functions

 Total QAlloc Memory Limit   8000 MB
 Mega-Array Size       188 MB
 MEM_STATIC part       192 MB
 A cutoff of  1.0D-08 yielded   1797 shell pairs
 There are     18464 function pairs
 Smallest overlap matrix eigenvalue = 3.24E-04

 Scale SEOQF with 1.000000e-01/1.000000e-01/1.000000e+00

 Standard Electronic Orientation quadrupole field applied
 Nucleus-field energy     =     0.0000000220 hartrees
 Guess from superposition of atomic densities
 Warning:  Energy on first SCF cycle will be non-variational
 SAD guess density has 102.000000 electrons

 -----------------------------------------------------------------------
  General SCF calculation program by
  Eric Jon Sundstrom, Paul Horn, Yuezhi Mao, Dmitri Zuev, Alec White,
  David Stuck, Shaama M.S., Shane Yost, Joonho Lee, David Small,
  Daniel Levine, Susi Lehtola, Hugh Burton, Evgeny Epifanovsky,
  Bang C. Huynh
 -----------------------------------------------------------------------
 Exchange:     0.2000 Hartree-Fock + 0.0800 Slater + 0.7200 B88
 Correlation:  0.1900 VWN1RPA + 0.8100 LYP
 Using SG-1 standard quadrature grid
 A restricted SCF calculation will be
 performed using DIIS
 SCF converges when DIIS error is below 1.0e-05
 ---------------------------------------
  Cycle       Energy         DIIS error
 ---------------------------------------
    1    -727.1231988992      5.22e-02  
    2    -723.8370531150      5.91e-03  
    3    -723.6580130216      7.85e-03  
    4    -724.0479875257      1.56e-03  
    5    -724.0635641822      4.53e-04  
    6    -724.0645259347      2.43e-04  
    7    -724.0649215580      4.97e-05  
    8    -724.0649362845      1.80e-05  
    9    -724.0649387336      4.11e-06  Convergence criterion met
 ---------------------------------------
 SCF time:   CPU 56.02s  wall 57.00s 
 SCF   energy in the final basis set =     -724.0649387336
 Total energy in the final basis set =     -724.0649387336
 
 --------------------------------------------------------------
 
                    Orbital Energies (a.u.)
 --------------------------------------------------------------
 
 Alpha MOs
 -- Occupied --
-24.7379 -24.7330 -24.7092 -10.3567 -10.2693 -10.2113 -10.2038 -10.2033
-10.1987 -10.1951 -10.1932 -10.1927 -10.1865 -10.1818  -1.2831  -1.2238
 -1.2192  -0.8789  -0.8185  -0.8014  -0.7618  -0.7265  -0.6988  -0.6516
 -0.6240  -0.6052  -0.5710  -0.5636  -0.5483  -0.5271  -0.5162  -0.4883
 -0.4772  -0.4677  -0.4459  -0.4398  -0.4374  -0.4339  -0.4244  -0.4183
 -0.4095  -0.4050  -0.3888  -0.3860  -0.3706  -0.3542  -0.3421  -0.3079
 -0.2768  -0.2356  -0.2183
 -- Virtual --
 -0.0349  -0.0165   0.0326   0.0756   0.0936   0.1061   0.1099   0.1212
  0.1395   0.1507   0.1572   0.1671   0.1814   0.1947   0.2037   0.2123
  0.2258   0.2648   0.2782   0.3042   0.3377   0.3516   0.3663   0.4008
  0.4127   0.4455   0.4655   0.4773   0.4979   0.5099   0.5186   0.5204
  0.5425   0.5454   0.5565   0.5671   0.5699   0.5749   0.5908   0.6004
  0.6090   0.6226   0.6292   0.6391   0.6600   0.6846   0.6877   0.6977
  0.7100   0.7552   0.7672   0.7808   0.8065   0.8211   0.8312   0.8410
  0.8684   0.8801   0.8821   0.8867   0.9203   0.9255   0.9475   0.9550
  0.9679   0.9905   0.9989   1.0115   1.0528   1.0662   1.0813   1.1201
  1.1276   1.1504   1.1841   1.2020   1.2089   1.2366   1.2470   1.2553
  1.2665   1.2988   1.3055   1.3249   1.3587   1.3653   1.3931   1.4110
  1.4353   1.4429   1.4526   1.4554   1.4794   1.4950   1.5087   1.5302
  1.5456   1.5690   1.6579   1.6741   1.7086   1.7502   1.7580   1.7727
  1.7948   1.8055   1.8172   1.8268   1.8444   1.8521   1.8624   1.8659
  1.8835   1.9057   1.9313   1.9513   1.9723   1.9859   1.9872   1.9988
  2.0236   2.0296   2.0680   2.0839   2.1059   2.1220   2.1360   2.1694
  2.1987   2.2211   2.2254   2.2537   2.2578   2.2903   2.3170   2.3246
  2.3571   2.3655   2.3857   2.4034   2.4344   2.5010   2.5150   2.5272
  2.5687   2.5768   2.6283   2.6702   2.6851   2.6983   2.7393   2.7851
  2.8451   2.8832   2.9084   2.9570   3.0126   3.0744   3.1210   3.1361
  3.1804   3.3358   3.4733   4.0870   4.0896   4.0968   4.1170   4.1461
  4.2262   4.2501   4.2694   4.4512   4.5010   4.7258   4.7645   5.2635
  5.6646
 --------------------------------------------------------------
 
          Ground-State Mulliken Net Atomic Charges

     Atom                 Charge (a.u.)
  ----------------------------------------
      1 C                    -0.355007
      2 C                    -0.113791
      3 C                     0.194456
      4 C                    -0.244858
      5 C                     0.107549
      6 C                    -0.521692
      7 C                     0.259994
      8 F                    -0.286976
      9 C                     0.114493
     10 C                    -0.318609
     11 C                     0.568740
     12 F                    -0.229215
     13 F                    -0.247556
     14 C                    -0.271492
     15 H                     0.145164
     16 H                     0.142495
     17 H                     0.127403
     18 H                     0.126207
     19 H                     0.156071
     20 H                     0.173147
     21 H                     0.172735
     22 H                     0.168599
     23 H                     0.132141
  ----------------------------------------
  Sum of atomic charges =     0.000000

 -----------------------------------------------------------------
                    Cartesian Multipole Moments
 -----------------------------------------------------------------
    Charge (ESU x 10^10)
                 0.0000
    Dipole Moment (Debye)
         X       1.7214      Y       0.3806      Z       0.2567
       Tot       1.7816
    Quadrupole Moments (Debye-Ang)
        XX     -78.5932     XY      -2.2030     YY     -71.7488
        XZ      -1.3563     YZ       1.3155     ZZ     -80.2335
    Octopole Moments (Debye-Ang^2)
       XXX     -26.4237    XXY      -5.2604    XYY     -10.3105
       YYY      -1.9900    XXZ      -4.1679    XYZ      -0.4864
       YYZ       0.9458    XZZ     -30.2203    YZZ      -4.5711
       ZZZ      -3.7732
    Hexadecapole Moments (Debye-Ang^3)
      XXXX   -2727.4894   XXXY      12.3241   XXYY    -619.4864
      XYYY     -10.3930   YYYY   -1042.6176   XXXZ     -11.5618
      XXYZ      -1.3868   XYYZ       3.4760   YYYZ       6.4742
      XXZZ    -509.8375   XYZZ     -16.3979   YYZZ    -202.1762
      XZZZ      20.9649   YZZZ      -0.8957   ZZZZ    -132.5686
 -----------------------------------------------------------------
 Total job time:  60.36s(wall), 56.52s(cpu) 
 Fri Aug 12 13:12:43 2022

        *************************************************************
        *                                                           *
        *  Thank you very much for using Q-Chem.  Have a nice day.  *
        *                                                           *
        *************************************************************


