23
 energy: -50.742572996025 gnorm: 0.000058023447 xtb: 6.5.0 (unknown)
C           -3.08569962720000        1.85996948130000       -0.93544463690000
C           -2.21466756330000        1.96052752540000        0.05683388780000
C           -0.90841504260000        1.29491509720000        0.08483442580000
C            0.20535438410000        2.06112448580000        0.42570800240000
C            1.48481126160000        1.54545612870000        0.37231973460000
C            1.66353477420000        0.23040134590000       -0.03467736290000
C            3.03355482200000       -0.37788215750000       -0.12119216990000
F            4.02122236050000        0.51442450540000        0.02365115970000
F            3.23071997000000       -1.31887021720000        0.82309034780000
F            3.24293157920000       -0.99164167660000       -1.30043701830000
C            0.56983441130000       -0.56218427480000       -0.34611880630000
C           -0.72173838950000       -0.05064041840000       -0.26946414450000
C           -1.82633226920000       -0.97845483200000       -0.52974312590000
C           -2.91330855840000       -1.09548534580000        0.21286652520000
F           -3.21786359550000       -0.38455920530000        1.28898321970000
F           -3.87739202330000       -1.97902393860000       -0.01914991630000
H           -4.01144439930000        2.40839030100000       -0.92963292360000
H           -2.90176431330000        1.23790687650000       -1.79606531400000
H           -2.41077349790000        2.62563829810000        0.88725347070000
H            0.05950830230000        3.09015000520000        0.71781738840000
H            2.33597424160000        2.15541472270000        0.63106224270000
H            0.72232264850000       -1.59144573960000       -0.63514865140000
H           -1.70988884870000       -1.68182885100000       -1.34026819170000
