
Running Job 1 of 1 fragments/B017/conf-3/spe_input.inp
qchem fragments/B017/conf-3/spe_input.inp_48413.0 /gpfs/fs0/scratch/a/aspuru/rhickman/descriptor_computation/qchem48413/ 0
/scinet/niagara/software/commercial/qc52/exe/qcprog.exe_s fragments/B017/conf-3/spe_input.inp_48413.0 /gpfs/fs0/scratch/a/aspuru/rhickman/descriptor_computation/qchem48413/
                  Welcome to Q-Chem
     A Quantum Leap Into The Future Of Chemistry


 Q-Chem 5.2, Q-Chem, Inc., Pleasanton, CA (2019)

 License issued to: SRG Alan Aspuru-Guzik, University of Toronto

 Yihan Shao,  Zhengting Gan,  E. Epifanovsky,  A. T. B. Gilbert,  M. Wormit,  
 J. Kussmann,  A. W. Lange,  A. Behn,  Jia Deng,  Xintian Feng,  D. Ghosh,  
 M. Goldey,  P. R. Horn,  L. D. Jacobson,  I. Kaliman,  T. Kus,  A. Landau,  
 Jie Liu,  E. I. Proynov,  R. M. Richard,  R. P. Steele,  E. J. Sundstrom,  
 H. L. Woodcock III,  P. M. Zimmerman,  D. Zuev,  B. Albrecht,  E. Alguire,  
 S. A. Baeppler,  D. Barton,  Z. Benda,  Y. A. Bernard,  E. J. Berquist,  
 K. B. Bravaya,  H. Burton,  D. Casanova,  Chun-Min Chang,  Yunqing Chen,  
 A. Chien,  K. D. Closser,  M. P. Coons,  S. Coriani,  S. Dasgupta,  
 A. L. Dempwolff,  M. Diedenhofen,  Hainam Do,  R. G. Edgar,  Po-Tung Fang,  
 S. Faraji,  S. Fatehi,  Qingguo Feng,  K. D. Fenk,  J. Fosso-Tande,  
 J. Gayvert,  Qinghui Ge,  A. Ghysels,  G. Gidofalvi,  J. Gomes,  
 J. Gonthier,  A. Gunina,  D. Hait,  M. W. D. Hanson-Heine,  
 P. H. P. Harbach,  A. W. Hauser,  M. F. Herbst,  J. E. Herr,  
 E. G. Hohenstein,  Z. C. Holden,  Kerwin Hui,  B. C. Huynh,  T.-C. Jagau,  
 Hyunjun Ji,  B. Kaduk,  K. Khistyaev,  Jaehoon Kim,  P. Klunzinger,  K. Koh,  
 D. Kosenkov,  L. Koulias,  T. Kowalczyk,  C. M. Krauter,  A. Kunitsa,  
 Ka Un Lao,  A. Laurent,  K. V. Lawler,  Joonho Lee,  D. Lefrancois,  
 S. Lehtola,  D. S. Levine,  Yi-Pei Li,  You-Sheng Lin,  Fenglai Liu,  
 E. Livshits,  A. Luenser,  P. Manohar,  E. Mansoor,  S. F. Manzer,  
 Shan-Ping Mao,  Yuezhi Mao,  N. Mardirossian,  A. V. Marenich,  
 T. Markovich,  L. A. Martinez-Martinez,  S. A. Maurer,  N. J. Mayhall,  
 S. C. McKenzie,  J.-M. Mewes,  P. Morgante,  A. F. Morrison,  
 J. W. Mullinax,  K. Nanda,  T. S. Nguyen-Beck,  R. Olivares-Amaya,  
 J. A. Parkhill,  Zheng Pei,  T. M. Perrine,  F. Plasser,  P. Pokhilko,  
 S. Prager,  A. Prociuk,  E. Ramos,  D. R. Rehn,  F. Rob,  M. Scheurer,  
 M. Schneider,  N. Sergueev,  S. M. Sharada,  S. Sharma,  D. W. Small,  
 T. Stauch,  T. Stein,  Yu-Chuan Su,  A. J. W. Thom,  A. Tkatchenko,  
 T. Tsuchimochi,  N. M. Tubman,  L. Vogt,  M. L. Vidal,  O. Vydrov,  
 M. A. Watson,  J. Wenzel,  M. de Wergifosse,  T. A. Wesolowski,  A. White,  
 J. Witte,  A. Yamada,  Jun Yang,  K. Yao,  S. Yeganeh,  S. R. Yost,  
 Zhi-Qiang You,  A. Zech,  Igor Ying Zhang,  Xing Zhang,  Yan Zhao,  
 Ying Zhu,  B. R. Brooks,  G. K. L. Chan,  C. J. Cramer,  M. S. Gordon,  
 W. J. Hehre,  A. Klamt,  M. W. Schmidt,  C. D. Sherrill,  D. G. Truhlar,  
 A. Aspuru-Guzik,  R. Baer,  A. T. Bell,  N. A. Besley,  Jeng-Da Chai,  
 A. E. DePrince, III,  R. A. DiStasio Jr.,  A. Dreuw,  B. D. Dunietz,  
 T. R. Furlani,  Chao-Ping Hsu,  Yousung Jung,  Jing Kong,  D. S. Lambrecht,  
 WanZhen Liang,  C. Ochsenfeld,  V. A. Rassolov,  L. V. Slipchenko,  
 J. E. Subotnik,  T. Van Voorhis,  J. M. Herbert,  A. I. Krylov,  
 P. M. W. Gill,  M. Head-Gordon

 Contributors to earlier versions of Q-Chem not listed above: 
 R. D. Adamson,  B. Austin,  J. Baker,  G. J. O. Beran,  K. Brandhorst,  
 S. T. Brown,  E. F. C. Byrd,  A. K. Chakraborty,  C.-L. Cheng,  
 Siu Hung Chien,  D. M. Chipman,  D. L. Crittenden,  H. Dachsel,  
 R. J. Doerksen,  A. D. Dutoi,  L. Fusti-Molnar,  W. A. Goddard III,  
 A. Golubeva-Zadorozhnaya,  S. R. Gwaltney,  G. Hawkins,  A. Heyden,  
 S. Hirata,  G. Kedziora,  F. J. Keil,  C. Kelley,  Jihan Kim,  R. A. King,  
 R. Z. Khaliullin,  P. P. Korambath,  W. Kurlancheek,  A. M. Lee,  M. S. Lee,  
 S. V. Levchenko,  Ching Yeh Lin,  D. Liotard,  R. C. Lochan,  I. Lotan,  
 P. E. Maslen,  N. Nair,  D. P. O'Neill,  D. Neuhauser,  E. Neuscamman,  
 C. M. Oana,  R. Olson,  B. Peters,  R. Peverati,  P. A. Pieniazek,  
 Y. M. Rhee,  J. Ritchie,  M. A. Rohrdanz,  E. Rosta,  N. J. Russ,  
 H. F. Schaefer III,  N. E. Schultz,  N. Shenvi,  A. C. Simmonett,  A. Sodt,  
 D. Stuck,  K. S. Thanthiriwatte,  V. Vanovschi,  Tao Wang,  A. Warshel,  
 C. F. Williams,  Q. Wu,  X. Xu,  W. Zhang

 Please cite Q-Chem as follows:
 Y. Shao et al., Mol. Phys. 113, 184-215 (2015)
 DOI: 10.1080/00268976.2014.952696

 Q-Chem 5.2.1 for Intel X86 EM64T Linux

 Parts of Q-Chem use Armadillo 8.300.2 (Tropical Shenanigans).
 http://arma.sourceforge.net/

 Q-Chem begins on Mon Feb  7 13:41:23 2022  

Host: 
0

     Scratch files written to /gpfs/fs0/scratch/a/aspuru/rhickman/descriptor_computation/qchem48413//
 Jul1719 |scratch|qcdevops|jenkins|workspace|build_RNUM -1
Processing $rem in /scinet/niagara/software/commercial/qc52/config/preferences:
	 MEM_TOTAL  4000 
NAlpha2: 130
NElect   130
Mult     1

Checking the input file for inconsistencies... 	...done.

--------------------------------------------------------------
User input:
--------------------------------------------------------------
$molecule
0 1
C        -5.61209407660000   -1.62540257790000    0.13578729100000
C        -5.37011471030000   -0.32072095050000    0.03656473750000
C        -4.06397310060000    0.27326964370000   -0.01008097560000
C        -3.76541358440000    1.61133695220000   -0.11053808030000
C        -2.39408233440000    1.88222798380000   -0.13313388120000
C        -1.61667623910000    0.74856531070000   -0.04999223890000
C        -0.19385045360000    0.66029177890000   -0.04662789010000
C         0.71898564520000    1.68999023730000   -0.12455571960000
C         2.04853548200000    1.26124049780000   -0.09671904710000
C         2.17729549070000   -0.10420164120000    0.00298164090000
C         3.35175003070000   -0.92442925210000    0.05935184250000
C         4.60983551880000   -0.49757561110000    0.02272711210000
F         5.02096256330000    0.76250260960000   -0.07236419390000
F         5.66491318210000   -1.30542134140000    0.07843953230000
S         0.61740143810000   -0.87080587940000    0.06360511990000
S        -2.60916384090000   -0.67506989360000    0.05816138600000
H        -6.61417116510000   -2.01418743950000    0.16652187890000
H        -4.80922590780000   -2.34234142100000    0.18909509850000
H        -6.18836809240000    0.38648523980000   -0.01602463610000
H        -4.52274216620000    2.37343968230000   -0.16615994110000
H        -1.98392188170000    2.87277399190000   -0.20790155040000
H         0.43174248380000    2.72264962590000   -0.19943532510000
H         2.88759905540000    1.93033596060000   -0.14802731530000
H         3.20825195150000   -1.99120987140000    0.13887514490000
$end

$rem
BASIS = 6-31G*
GUI = 2
METHOD = B3LYP
PRINT_ORBITALS false
MOLDEN_FORMAT false
--------------------------------------------------------------
 ----------------------------------------------------------------
             Standard Nuclear Orientation (Angstroms)
    I     Atom           X                Y                Z
 ----------------------------------------------------------------
    1      C       5.4697948476    -1.7611136544    -0.0000398666
    2      C       5.2547608373    -0.4479690017     0.0021449232
    3      C       3.9611423918     0.1745718468     0.0012718029
    4      C       3.6902302392     1.5222585699     0.0020710354
    5      C       2.3247755069     1.8222148150     0.0008286512
    6      C       1.5241647913     0.7017310847    -0.0007582178
    7      C       0.0998214702     0.6427210950    -0.0015804346
    8      C      -0.7915925784     1.6939118246    -0.0022504431
    9      C      -2.1297000308     1.2917023989    -0.0021413586
   10      C      -2.2865832876    -0.0744376518    -0.0013618987
   11      C      -3.4776998913    -0.8722689570    -0.0004428487
   12      C      -4.7267211442    -0.4181016759     0.0011343839
   13      F      -5.1117848908     0.8537434662     0.0020125210
   14      F      -5.7982309825    -1.2059932596     0.0021304393
   15      S      -0.7428240124    -0.8753333341    -0.0010073422
   16      S       2.4870933573    -0.7461068075    -0.0009952348
   17      H       6.4636437235    -2.1716262362     0.0007391007
   18      H       4.6523197789    -2.4633729274    -0.0026377822
   19      H       6.0874171618     0.2442168870     0.0047861051
   20      H       4.4631079021     2.2706561599     0.0035232608
   21      H       1.9351220834     2.8238001531     0.0012928245
   22      H      -0.4831205181     2.7231570105    -0.0028311763
   23      H      -2.9547915260     1.9798686412    -0.0025934761
   24      H      -3.3562241753    -1.9447334467    -0.0007786377
 ----------------------------------------------------------------
 Molecular Point Group                 C1    NOp =  1
 Largest Abelian Subgroup              C1    NOp =  1
 Nuclear Repulsion Energy =        1205.10342018 hartrees
 There are       65 alpha and       65 beta electrons
 Requested basis set is 6-31G(d)
 There are 82 shells and 264 basis functions

 Total QAlloc Memory Limit   4000 MB
 Mega-Array Size       188 MB
 MEM_STATIC part       192 MB
 A cutoff of  1.0D-08 yielded   1806 shell pairs
 There are     20183 function pairs
 Smallest overlap matrix eigenvalue = 5.63E-04

 Scale SEOQF with 1.000000e-02/1.000000e-01/1.000000e+00

 Standard Electronic Orientation quadrupole field applied
 Nucleus-field energy     =     0.0000000181 hartrees
 Guess from superposition of atomic densities
 Warning:  Energy on first SCF cycle will be non-variational
 SAD guess density has 130.000000 electrons

 -----------------------------------------------------------------------
  General SCF calculation program by
  Eric Jon Sundstrom, Paul Horn, Yuezhi Mao, Dmitri Zuev, Alec White,
  David Stuck, Shaama M.S., Shane Yost, Joonho Lee, David Small,
  Daniel Levine, Susi Lehtola, Hugh Burton, Evgeny Epifanovsky,
  Bang C. Huynh
 -----------------------------------------------------------------------
 Exchange:     0.2000 Hartree-Fock + 0.0800 Slater + 0.7200 B88
 Correlation:  0.1900 VWN1RPA + 0.8100 LYP
 Using SG-1 standard quadrature grid
 A restricted SCF calculation will be
 performed using DIIS
 SCF converges when DIIS error is below 1.0e-05
 ---------------------------------------
  Cycle       Energy         DIIS error
 ---------------------------------------
    1   -1461.9828980840      4.92e-02  
    2   -1457.7959750923      5.59e-03  
    3   -1457.3891761698      8.45e-03  
    4   -1458.0652876974      1.38e-03  
    5   -1458.0827019620      5.30e-04  
    6   -1458.0844736501      3.39e-04  
    7   -1458.0855112098      8.58e-05  
    8   -1458.0855739589      3.00e-05  
    9   -1458.0855814165      9.52e-06  Convergence criterion met
 ---------------------------------------
 SCF time:   CPU 40.77s  wall 41.00s 
 SCF   energy in the final basis set =    -1458.0855814165
 Total energy in the final basis set =    -1458.0855814165
 
 --------------------------------------------------------------
 
                    Orbital Energies (a.u.)
 --------------------------------------------------------------
 
 Alpha MOs
 -- Occupied --
-88.9133 -88.9073 -24.7482 -24.7405 -10.3619 -10.2319 -10.2298 -10.2294
-10.2201 -10.2150 -10.1996 -10.1963 -10.1943 -10.1941 -10.1936 -10.1826
 -7.9751  -7.9694  -5.9391  -5.9356  -5.9334  -5.9319  -5.9298  -5.9261
 -1.2894  -1.2299  -0.9059  -0.8851  -0.8189  -0.7955  -0.7579  -0.7457
 -0.7342  -0.6982  -0.6485  -0.6185  -0.5921  -0.5846  -0.5702  -0.5461
 -0.5347  -0.5243  -0.5234  -0.4902  -0.4737  -0.4565  -0.4473  -0.4457
 -0.4305  -0.4211  -0.4123  -0.4120  -0.3988  -0.3867  -0.3843  -0.3783
 -0.3668  -0.3568  -0.3358  -0.3246  -0.2906  -0.2648  -0.2542  -0.2381
 -0.1858
 -- Virtual --
 -0.0659  -0.0162  -0.0072   0.0216   0.0569   0.0684   0.0743   0.0902
  0.1083   0.1108   0.1155   0.1160   0.1319   0.1389   0.1538   0.1635
  0.1728   0.1887   0.2025   0.2089   0.2291   0.2405   0.2603   0.2824
  0.2938   0.3116   0.3204   0.3340   0.3420   0.3544   0.3875   0.3910
  0.4060   0.4281   0.4376   0.4561   0.4736   0.4805   0.4959   0.5000
  0.5041   0.5209   0.5255   0.5397   0.5529   0.5573   0.5684   0.5771
  0.5920   0.5928   0.5986   0.6050   0.6056   0.6085   0.6399   0.6439
  0.6521   0.6561   0.6711   0.6821   0.6964   0.7048   0.7470   0.7822
  0.7980   0.8030   0.8155   0.8274   0.8364   0.8499   0.8513   0.8520
  0.8578   0.8639   0.8736   0.8821   0.8971   0.9169   0.9216   0.9369
  0.9549   0.9707   0.9775   0.9875   1.0035   1.0180   1.0381   1.0448
  1.0521   1.0585   1.0969   1.1217   1.1339   1.1494   1.1503   1.1566
  1.2125   1.2169   1.2259   1.2492   1.2833   1.2935   1.3277   1.3363
  1.3380   1.3411   1.3528   1.3931   1.3934   1.3966   1.4006   1.4193
  1.4535   1.4563   1.4588   1.4694   1.5541   1.5623   1.6002   1.6050
  1.6266   1.6420   1.6531   1.6975   1.7163   1.7508   1.7753   1.7804
  1.7974   1.8304   1.8311   1.8425   1.8703   1.8766   1.9230   1.9584
  1.9748   1.9861   1.9975   2.0065   2.0192   2.0264   2.0488   2.0489
  2.0980   2.1038   2.1209   2.1386   2.1444   2.1647   2.1672   2.1945
  2.2396   2.2612   2.3066   2.3075   2.3268   2.3579   2.3832   2.4061
  2.4334   2.4475   2.4827   2.4860   2.5260   2.5483   2.5495   2.5823
  2.6548   2.6587   2.6993   2.7331   2.7741   2.8906   2.8934   2.9335
  2.9964   3.0293   3.0572   3.0979   3.1387   3.1959   3.3080   3.9274
  4.0033   4.0627   4.0948   4.1138   4.1226   4.1318   4.1562   4.2214
  4.2789   4.3631   4.5219   4.5325   4.5880   4.7483   5.2422
 --------------------------------------------------------------
 
          Ground-State Mulliken Net Atomic Charges

     Atom                 Charge (a.u.)
  ----------------------------------------
      1 C                    -0.376050
      2 C                    -0.058092
      3 C                    -0.129550
      4 C                    -0.150266
      5 C                    -0.110392
      6 C                    -0.163844
      7 C                    -0.159201
      8 C                    -0.110380
      9 C                    -0.144794
     10 C                    -0.107687
     11 C                    -0.268809
     12 C                     0.555330
     13 F                    -0.236294
     14 F                    -0.243503
     15 S                     0.258202
     16 S                     0.257919
     17 H                     0.147493
     18 H                     0.156240
     19 H                     0.139346
     20 H                     0.140790
     21 H                     0.139558
     22 H                     0.142300
     23 H                     0.149389
     24 H                     0.172293
  ----------------------------------------
  Sum of atomic charges =     0.000000

 -----------------------------------------------------------------
                    Cartesian Multipole Moments
 -----------------------------------------------------------------
    Charge (ESU x 10^10)
                 0.0000
    Dipole Moment (Debye)
         X       0.8099      Y       1.0130      Z       0.0006
       Tot       1.2970
    Quadrupole Moments (Debye-Ang)
        XX     -98.1475     XY       2.7114     YY     -94.7598
        XZ       0.0199     YZ       0.0064     ZZ    -108.7179
    Octopole Moments (Debye-Ang^2)
       XXX      16.0805    XXY       4.6507    XYY     -17.8840
       YYY       5.8790    XXZ       0.0768    XYZ       0.0436
       YYZ      -0.0021    XZZ     -40.5122    YZZ      -2.5864
       ZZZ       0.0420
    Hexadecapole Moments (Debye-Ang^3)
      XXXX   -7053.1434   XXXY       4.6875   XXYY   -1275.1347
      XYYY      24.5119   YYYY    -829.0340   XXXZ       0.6659
      XXYZ       0.1690   XYYZ      -0.0291   YYYZ       0.0353
      XXZZ   -1288.9319   XYZZ      10.8576   YYZZ    -183.0238
      XZZZ      -0.2560   YZZZ       0.0023   ZZZZ    -114.9359
 -----------------------------------------------------------------
Archival summary:
1\1\nia1977.scinet.local\SP\ProcedureUnspecified\6-31G*\22128\rhickman\MonFeb713:42:052022MonFeb713:42:052022\0\\#,ProcedureUnspecified,6-31G*,\\0,1\S\C,1,1.73624\C,2,1.37827,1,110.668\H,3,1.07448,2,123.018,1,-179.991,0\C,3,1.39725,2,113.568,1,0.00732459,0\H,5,1.07441,3,123.44,2,180,0\C,5,1.37512,3,113.281,2,0.00109209,0\C,2,1.42557,1,121.406,3,179.972,0\C,8,1.37712,2,127.919,1,-179.9,0\H,9,1.07471,8,123.195,2,-0.0231664,0\C,9,1.39801,8,113.157,2,179.963,0\H,11,1.07584,9,123.532,8,-179.991,0\C,11,1.37465,9,113.756,8,0.00877657,0\C,7,1.43363,5,130.366,3,179.97,0\H,14,1.07932,7,117.353,5,179.95,0\C,14,1.32903,7,126.203,5,-0.0687824,0\F,16,1.32886,14,126.826,7,0.0078678,0\F,16,1.33,14,123.69,7,-179.99,0\C,13,1.43562,11,127.065,9,179.999,0\H,19,1.08279,13,114.565,11,0.0696698,0\C,19,1.33064,13,124.999,11,-179.929,0\H,21,1.07529,19,121.743,13,179.999,0\H,21,1.0777,19,121.365,13,-0.00399628,0\S,13,1.73795,11,110.622,9,-0.00297358,0\\\@

 Total job time:  41.12s(wall), 41.00s(cpu) 
 Mon Feb  7 13:42:05 2022

        *************************************************************
        *                                                           *
        *  Thank you very much for using Q-Chem.  Have a nice day.  *
        *                                                           *
        *************************************************************


