
Running Job 1 of 1 tidas/B050/conf-3/spe_input.inp
qchem tidas/B050/conf-3/spe_input.inp_134536.0 /home/a/aspuru/seifridm/acdc_laser/descriptor_computation/qchem134536/ 0
/gpfs/fs1/scinet/niagara/software/commercial/qc54/exe/qcprog.exe_s tidas/B050/conf-3/spe_input.inp_134536.0 /home/a/aspuru/seifridm/acdc_laser/descriptor_computation/qchem134536/
                  Welcome to Q-Chem
     A Quantum Leap Into The Future Of Chemistry


 Q-Chem 5.4, Q-Chem, Inc., Pleasanton, CA (2021)

 License issued to: SRG Alan Aspuru-Guzik, University of Toronto

 E. Epifanovsky,  A. T. B. Gilbert,  Xintian Feng,  Joonho Lee,  Yuezhi Mao,  
 N. Mardirossian,  P. Pokhilko,  A. White,  M. Wormit,  M. P. Coons,  
 A. L. Dempwolff,  Zhengting Gan,  D. Hait,  P. R. Horn,  L. D. Jacobson,  
 I. Kaliman,  J. Kussmann,  A. W. Lange,  Ka Un Lao,  D. S. Levine,  Jie Liu,  
 S. C. McKenzie,  A. F. Morrison,  K. Nanda,  F. Plasser,  D. R. Rehn,  
 M. L. Vidal,  Zhi-Qiang You,  Ying Zhu,  B. Alam,  B. Albrecht,  
 A. Aldossary,  E. Alguire,  J. H. Andersen,  D. Barton,  K. Begam,  A. Behn,  
 Y. A. Bernard,  E. J. Berquist,  H. Burton,  A. Carreras,  K. Carter-Fenk,  
 Romit Chakraborty,  A. D. Chien,  K. D. Closser,  V. Cofer-Shabica,  
 S. Dasgupta,  Jia Deng,  M. de Wergifosse,  M. Diedenhofen,  Hainam Do,  
 S. Ehlert,  Po-Tung Fang,  S. Fatehi,  Qingguo Feng,  T. Friedhoff,  
 J. Gayvert,  Qinghui Ge,  G. Gidofalvi,  M. Goldey,  J. Gomes,  
 C. Gonzalez-Espinoza,  S. Gulania,  A. Gunina,  M. W. D. Hanson-Heine,  
 P. H. P. Harbach,  A. W. Hauser,  M. F. Herbst,  M. Hernandez Vera,  
 M. Hodecker,  Z. C. Holden,  S. Houck,  Xunkun Huang,  Kerwin Hui,  
 B. C. Huynh,  M. Ivanov,  Hyunjun Ji,  Hanjie Jiang,  B. Kaduk,  S. Kaehler,  
 K. Khistyaev,  Jaehoon Kim,  P. Klunzinger,  Z. Koczor-Benda,  
 Joong Hoon Koh,  D. Kosenkov,  L. Koulias,  T. Kowalczyk,  C. M. Krauter,  
 K. Kue,  A. Kunitsa,  T. Kus,  A. Landau,  K. V. Lawler,  D. Lefrancois,  
 S. Lehtola,  Rain Li,  Yi-Pei Li,  Jiashu Liang,  M. Liebenthal,  
 Hung-Hsuan Lin,  You-Sheng Lin,  Fenglai Liu,  Kuan-Yu Liu,  
 M. Loipersberger,  A. Luenser,  A. Manjanath,  P. Manohar,  E. Mansoor,  
 S. F. Manzer,  Shan-Ping Mao,  A. V. Marenich,  T. Markovich,  S. Mason,  
 S. A. Maurer,  P. F. McLaughlin,  M. F. S. J. Menger,  J.-M. Mewes,  
 S. A. Mewes,  P. Morgante,  J. W. Mullinax,  K. J. Oosterbaan,  G. Paran,  
 Alexander C. Paul,  Suranjan K. Paul,  F. Pavosevic,  Zheng Pei,  S. Prager,  
 E. I. Proynov,  E. Ramos,  B. Rana,  A. E. Rask,  A. Rettig,  R. M. Richard,  
 F. Rob,  E. Rossomme,  T. Scheele,  M. Scheurer,  M. Schneider,  
 N. Sergueev,  S. M. Sharada,  W. Skomorowski,  D. W. Small,  C. J. Stein,  
 Yu-Chuan Su,  E. J. Sundstrom,  Zhen Tao,  J. Thirman,  T. Tsuchimochi,  
 N. M. Tubman,  S. P. Veccham,  O. Vydrov,  J. Wenzel,  J. Witte,  A. Yamada,  
 Kun Yao,  S. Yeganeh,  S. R. Yost,  A. Zech,  Igor Ying Zhang,  Xing Zhang,  
 Yu Zhang,  D. Zuev,  A. Aspuru-Guzik,  A. T. Bell,  N. A. Besley,  
 K. B. Bravaya,  B. R. Brooks,  D. Casanova,  Jeng-Da Chai,  S. Coriani,  
 C. J. Cramer,  A. E. DePrince, III,  R. A. DiStasio Jr.,  A. Dreuw,  
 B. D. Dunietz,  T. R. Furlani,  W. A. Goddard III,  S. Grimme,  
 S. Hammes-Schiffer,  T. Head-Gordon,  W. J. Hehre,  Chao-Ping Hsu,  
 T.-C. Jagau,  Yousung Jung,  A. Klamt,  Jing Kong,  D. S. Lambrecht,  
 WanZhen Liang,  N. J. Mayhall,  C. W. McCurdy,  J. B. Neaton,  T. Neudecker,  
 C. Ochsenfeld,  J. A. Parkhill,  R. Peverati,  V. A. Rassolov,  Yihan Shao,  
 L. V. Slipchenko,  R. P. Steele,  J. E. Subotnik,  A. J. W. Thom,  
 A. Tkatchenko,  D. G. Truhlar,  T. Van Voorhis,  T. A. Wesolowski,  
 K. B. Whaley,  H. L. Woodcock III,  P. M. Zimmerman,  S. Faraji,  
 P. M. W. Gill,  M. Head-Gordon,  J. M. Herbert,  A. I. Krylov

 Additional authors since Version 5.4.0: 
 Chandrima Chakravarty,  L. Cunha,  R. Kang,  Yongbin Kim,  S. Kotaru,  
 Shaozhi Li,  Xiangyuan Li,  F. Matz,  A. Molle,  V. Parravicini,  
 Haisheng Ren,  Hengyuan Shen,  Yingli Su,  Hung-Yi Tsai,  C. Utku,  
 Fang Wang,  Jeff Yang,  F. Zeller

 Contributors to earlier versions of Q-Chem not listed above: 
 R. D. Adamson,  B. Austin,  R. Baer,  J. Baker,  G. J. O. Beran,  
 K. Brandhorst,  S. T. Brown,  E. F. C. Byrd,  Arup K. Chakraborty,  
 G. K. L. Chan,  Chun-Min Chang,  Yunqing Chen,  C.-L. Cheng,  
 Siu Hung Chien,  D. M. Chipman,  D. L. Crittenden,  H. Dachsel,  
 R. J. Doerksen,  A. D. Dutoi,  R. G. Edgar,  J. Fosso-Tande,  
 L. Fusti-Molnar,  D. Ghosh,  A. Ghysels,  A. Golubeva-Zadorozhnaya,  
 J. Gonthier,  M. S. Gordon,  S. R. Gwaltney,  G. Hawkins,  J. E. Herr,  
 A. Heyden,  S. Hirata,  E. G. Hohenstein,  G. Kedziora,  F. J. Keil,  
 C. Kelley,  Jihan Kim,  R. A. King,  R. Z. Khaliullin,  P. P. Korambath,  
 W. Kurlancheek,  A. Laurent,  A. M. Lee,  M. S. Lee,  S. V. Levchenko,  
 Ching Yeh Lin,  D. Liotard,  E. Livshits,  R. C. Lochan,  I. Lotan,  
 L. A. Martinez-Martinez,  P. E. Maslen,  N. Nair,  D. P. O'Neill,  
 D. Neuhauser,  E. Neuscamman,  C. M. Oana,  R. Olivares-Amaya,  R. Olson,  
 T. M. Perrine,  B. Peters,  P. A. Pieniazek,  A. Prociuk,  Y. M. Rhee,  
 J. Ritchie,  M. A. Rohrdanz,  E. Rosta,  N. J. Russ,  H. F. Schaefer III,  
 M. W. Schmidt,  N. E. Schultz,  S. Sharma,  N. Shenvi,  C. D. Sherrill,  
 A. C. Simmonett,  A. Sodt,  T. Stein,  D. Stuck,  K. S. Thanthiriwatte,  
 V. Vanovschi,  L. Vogt,  Tao Wang,  A. Warshel,  M. A. Watson,  
 C. F. Williams,  Q. Wu,  X. Xu,  Jun Yang,  W. Zhang,  Yan Zhao

   Please cite Q-Chem as follows:
  "Software for the frontiers of quantum chemistry:
   An overview of developments in the Q-Chem 5 package"
   J. Chem. Phys. 155, 084801 (2021)
   https://doi.org/10.1063/5.0055522 (open access)

 Q-Chem 5.4.2 for Intel X86 EM64T Linux

 Parts of Q-Chem use Armadillo 9.900.5 (Nocturnal Misbehaviour).
 http://arma.sourceforge.net/

 Q-Chem begins on Fri Aug 12 13:11:43 2022  

 Host: 
0

     Scratch files written to /home/a/aspuru/seifridm/acdc_laser/descriptor_computation/qchem134536//
 Dec1321 |scratch|qcdevops|jenkins|workspace|build_RNUM 6959   
 Processing $rem in /gpfs/fs1/scinet/niagara/software/commercial/qc54/config/preferences:
 Processing $rem in /home/a/aspuru/seifridm/.qchemrc:

 Checking the input file for inconsistencies... 	...done.

--------------------------------------------------------------
User input:
--------------------------------------------------------------
$molecule
0 1
C           -0.04200987370000        4.86378409130000        0.21412643190000
C           -0.94251536680000        3.88881120460000        0.21788851750000
C           -0.67087186350000        2.45911819190000        0.11069903560000
C           -1.74142926770000        1.56693060540000        0.11325731100000
C           -1.55723289810000        0.18742904030000        0.01415858370000
C           -2.74100234440000       -0.65979727490000        0.02881863330000
C           -2.80870175960000       -1.98157014040000       -0.02740939270000
F           -1.81105765040000       -2.85099556910000       -0.10992803820000
F           -3.96040210140000       -2.64927087580000       -0.00488996330000
C           -0.26039242450000       -0.31189178280000       -0.09391151920000
C            0.81690339370000        0.56655627760000       -0.09802393280000
C            2.21767362740000        0.07770035130000       -0.20821891670000
O            3.18487103770000        0.79881744030000       -0.16012112950000
O            2.28213724330000       -1.24611203480000       -0.38019320830000
C            3.58285766860000       -1.82505271820000       -0.47892379530000
C            4.17711611720000       -2.09091006540000        0.89680422710000
C            0.61655879100000        1.93721344190000        0.00535970050000
H           -0.33705145280000        5.89557930750000        0.29778689880000
H            1.01494819380000        4.68092386010000        0.12828910550000
H           -1.99215717350000        4.14155042200000        0.30600462740000
H           -2.74681567660000        1.95615408440000        0.19552389060000
H           -3.69438734220000       -0.15567339050000        0.09632041170000
H           -0.07166518720000       -1.36842331410000       -0.17477358900000
H            4.23021631660000       -1.14850306910000       -1.04679233320000
H            3.43722894950000       -2.75527189880000       -1.03200489540000
H            4.32457590480000       -1.15191785240000        1.42476831750000
H            5.13637373410000       -2.58891998350000        0.78925109070000
H            3.51035619090000       -2.72314326160000        1.47832144830000
H            1.48452454950000        2.57689795590000        0.00076772780000
$end

$rem
BASIS = 6-31G*
GUI = 2
METHOD = B3LYP
PRINT_ORBITALS false
MOLDEN_FORMAT false
$end
--------------------------------------------------------------
 ----------------------------------------------------------------
             Standard Nuclear Orientation (Angstroms)
    I     Atom           X                Y                Z
 ----------------------------------------------------------------
    1      C      -0.0221622132    -4.8174637075    -0.0953145425
    2      C      -0.9425825790    -3.8617078971    -0.1245311022
    3      C      -0.7009723461    -2.4246353618    -0.0487095213
    4      C      -1.7897026264    -1.5551253480    -0.0754882937
    5      C      -1.6344495593    -0.1702166290    -0.0069481341
    6      C      -2.8353872200     0.6517325227    -0.0452335791
    7      C      -2.9306007440     1.9727490289    -0.0191935143
    8      F      -1.9514786888     2.8643162883     0.0473759572
    9      F      -4.0957364248     2.6157446737    -0.0611520678
   10      C      -0.3486638913     0.3582007026     0.0946687207
   11      C       0.7465130467    -0.4974014453     0.1227155689
   12      C       2.1364124785     0.0227591018     0.2270844993
   13      O       3.1184877422    -0.6790466051     0.1989596014
   14      O       2.1728010689     1.3511653112     0.3692912554
   15      C       3.4608613647     1.9590349584     0.4597834375
   16      C       4.0553159595     2.2060650596    -0.9193650999
   17      C       0.5749508375    -1.8739014301     0.0496307036
   18      H      -0.2954804372    -5.8567798257    -0.1567077835
   19      H       1.0304224848    -4.6108344526    -0.0096636713
   20      H      -1.9864001750    -4.1380830025    -0.2108509185
   21      H      -2.7864813240    -1.9668709605    -0.1527043324
   22      H      -3.7778660798     0.1265518240    -0.1048923376
   23      H      -0.1821353050     1.4199736835     0.1523045431
   24      H       4.1196440055     1.3090345720     1.0452509883
   25      H       3.2937194634     2.8982707754     0.9911155522
   26      H       4.2243634535     1.2586647519    -1.4253813521
   27      H       5.0036230098     2.7261597050    -0.8195050506
   28      H       3.3781090916     2.8110596452    -1.5175475986
   29      H       1.4559123020    -2.4951823553     0.0719652442
 ----------------------------------------------------------------
 Molecular Point Group                 C1    NOp =  1
 Largest Abelian Subgroup              C1    NOp =  1
 Nuclear Repulsion Energy =        1143.02060192 hartrees
 There are       62 alpha and       62 beta electrons
 Requested basis set is 6-31G(d)
 There are 92 shells and 279 basis functions

 Total QAlloc Memory Limit   8000 MB
 Mega-Array Size       188 MB
 MEM_STATIC part       192 MB
 A cutoff of  1.0D-08 yielded   2282 shell pairs
 There are     22877 function pairs
 Smallest overlap matrix eigenvalue = 3.56E-04

 Scale SEOQF with 1.000000e-01/1.000000e-02/1.000000e+00

 Standard Electronic Orientation quadrupole field applied
 Nucleus-field energy     =     0.0000000149 hartrees
 Guess from superposition of atomic densities
 Warning:  Energy on first SCF cycle will be non-variational
 SAD guess density has 124.000000 electrons

 -----------------------------------------------------------------------
  General SCF calculation program by
  Eric Jon Sundstrom, Paul Horn, Yuezhi Mao, Dmitri Zuev, Alec White,
  David Stuck, Shaama M.S., Shane Yost, Joonho Lee, David Small,
  Daniel Levine, Susi Lehtola, Hugh Burton, Evgeny Epifanovsky,
  Bang C. Huynh
 -----------------------------------------------------------------------
 Exchange:     0.2000 Hartree-Fock + 0.0800 Slater + 0.7200 B88
 Correlation:  0.1900 VWN1RPA + 0.8100 LYP
 Using SG-1 standard quadrature grid
 A restricted SCF calculation will be
 performed using DIIS
 SCF converges when DIIS error is below 1.0e-05
 ---------------------------------------
  Cycle       Energy         DIIS error
 ---------------------------------------
    1    -856.4382010621      4.80e-02  
    2    -852.4008943423      5.84e-03  
    3    -852.0282933098      8.96e-03  
    4    -852.6783895430      2.03e-03  
    5    -852.7099414962      6.50e-04  
    6    -852.7128011465      2.42e-04  
    7    -852.7132884726      6.51e-05  
    8    -852.7133231191      2.62e-05  
    9    -852.7133305145      6.97e-06  Convergence criterion met
 ---------------------------------------
 SCF time:   CPU 80.57s  wall 84.00s 
 SCF   energy in the final basis set =     -852.7133305145
 Total energy in the final basis set =     -852.7133305145
 
 --------------------------------------------------------------
 
                    Orbital Energies (a.u.)
 --------------------------------------------------------------
 
 Alpha MOs
 -- Occupied --
-24.7491 -24.7383 -19.1915 -19.1321 -10.3618 -10.3135 -10.2426 -10.2139
-10.2077 -10.2043 -10.2040 -10.2001 -10.1962 -10.1954 -10.1946 -10.1847
-10.1800  -1.2905  -1.2291  -1.1089  -1.0171  -0.8807  -0.8210  -0.8027
 -0.7732  -0.7533  -0.7317  -0.6746  -0.6541  -0.6328  -0.6198  -0.5867
 -0.5698  -0.5548  -0.5304  -0.5237  -0.5153  -0.4980  -0.4844  -0.4776
 -0.4643  -0.4523  -0.4455  -0.4452  -0.4354  -0.4350  -0.4157  -0.4146
 -0.4091  -0.3947  -0.3811  -0.3795  -0.3759  -0.3578  -0.3517  -0.3393
 -0.3246  -0.2993  -0.2897  -0.2738  -0.2410  -0.2237
 -- Virtual --
 -0.0450  -0.0439   0.0049   0.0813   0.0832   0.0874   0.1090   0.1148
  0.1185   0.1310   0.1472   0.1475   0.1562   0.1610   0.1653   0.1790
  0.1890   0.1912   0.2015   0.2086   0.2231   0.2294   0.2678   0.2794
  0.2983   0.3066   0.3112   0.3310   0.3572   0.3860   0.4177   0.4397
  0.4608   0.4748   0.4855   0.4972   0.5086   0.5161   0.5215   0.5342
  0.5390   0.5436   0.5476   0.5569   0.5571   0.5673   0.5764   0.5810
  0.5831   0.5977   0.6176   0.6195   0.6222   0.6370   0.6394   0.6565
  0.6596   0.6813   0.6967   0.7097   0.7521   0.7613   0.7705   0.7770
  0.7920   0.7986   0.8097   0.8186   0.8254   0.8495   0.8603   0.8743
  0.8811   0.8915   0.8940   0.8955   0.9110   0.9346   0.9490   0.9573
  0.9609   0.9867   1.0079   1.0162   1.0223   1.0440   1.0586   1.0901
  1.1021   1.1039   1.1190   1.1445   1.1569   1.1680   1.1730   1.2080
  1.2094   1.2160   1.2449   1.2553   1.2720   1.3031   1.3184   1.3224
  1.3363   1.3428   1.3644   1.3880   1.3994   1.4049   1.4411   1.4535
  1.4562   1.4724   1.4834   1.4934   1.5027   1.5127   1.5503   1.5665
  1.5902   1.6445   1.6705   1.6774   1.6893   1.7199   1.7384   1.7504
  1.7740   1.7795   1.7865   1.8012   1.8287   1.8299   1.8328   1.8613
  1.8726   1.8873   1.8921   1.8951   1.9332   1.9370   1.9464   1.9644
  1.9726   1.9849   1.9926   2.0182   2.0254   2.0259   2.0507   2.0665
  2.0759   2.1159   2.1214   2.1404   2.1572   2.1614   2.1790   2.2070
  2.2204   2.2224   2.2588   2.2864   2.2914   2.3126   2.3184   2.3390
  2.3485   2.4063   2.4256   2.4286   2.4893   2.5007   2.5168   2.5207
  2.5406   2.5842   2.6054   2.6381   2.6420   2.6608   2.6764   2.6979
  2.7543   2.7591   2.8094   2.8273   2.8697   2.8986   2.9130   2.9673
  2.9911   3.0472   3.1192   3.1342   3.1734   3.2246   3.3315   3.4907
  3.9885   4.0724   4.0885   4.1153   4.1211   4.1485   4.1893   4.2302
  4.2614   4.3282   4.4354   4.4769   4.4916   4.5694   4.7493   4.8320
  5.2997
 --------------------------------------------------------------
 
          Ground-State Mulliken Net Atomic Charges

     Atom                 Charge (a.u.)
  ----------------------------------------
      1 C                    -0.350920
      2 C                    -0.111257
      3 C                     0.178994
      4 C                    -0.263757
      5 C                     0.198575
      6 C                    -0.298705
      7 C                     0.548379
      8 F                    -0.230867
      9 F                    -0.247148
     10 C                    -0.234427
     11 C                     0.046969
     12 C                     0.605901
     13 O                    -0.493033
     14 O                    -0.466701
     15 C                    -0.046471
     16 C                    -0.464334
     17 C                    -0.223553
     18 H                     0.147420
     19 H                     0.153577
     20 H                     0.127391
     21 H                     0.130901
     22 H                     0.160671
     23 H                     0.162285
     24 H                     0.169245
     25 H                     0.152472
     26 H                     0.178409
     27 H                     0.152109
     28 H                     0.157670
     29 H                     0.160206
  ----------------------------------------
  Sum of atomic charges =     0.000000

 -----------------------------------------------------------------
                    Cartesian Multipole Moments
 -----------------------------------------------------------------
    Charge (ESU x 10^10)
                 0.0000
    Dipole Moment (Debye)
         X      -0.9547      Y       0.3064      Z      -0.0982
       Tot       1.0074
    Quadrupole Moments (Debye-Ang)
        XX     -92.4738     XY      11.5633     YY     -89.6765
        XZ       0.6077     YZ       0.8033     ZZ     -97.8734
    Octopole Moments (Debye-Ang^2)
       XXX     -24.4966    XXY      28.9120    XYY       9.1750
       YYY      17.3323    XXZ       0.7211    XYZ       0.8810
       YYZ       0.1394    XZZ      -2.0508    YZZ      26.7130
       ZZZ       3.2435
    Hexadecapole Moments (Debye-Ang^3)
      XXXX   -3339.4454   XXXY      88.7646   XXYY   -1025.4767
      XYYY     -50.2309   YYYY   -2810.5963   XXXZ      15.9202
      XXYZ      14.7868   XYYZ      12.1614   YYYZ      15.8472
      XXZZ    -589.7919   XYZZ     -44.3489   YYZZ    -558.7058
      XZZZ       9.0141   YZZZ       0.2850   ZZZZ    -166.8076
 -----------------------------------------------------------------
 Total job time:  88.08s(wall), 81.28s(cpu) 
 Fri Aug 12 13:13:11 2022

        *************************************************************
        *                                                           *
        *  Thank you very much for using Q-Chem.  Have a nice day.  *
        *                                                           *
        *************************************************************


