
Running Job 1 of 1 fragments/C061/conf-0/spe_input.inp
qchem fragments/C061/conf-0/spe_input.inp_270488.0 /gpfs/fs0/scratch/a/aspuru/rhickman/descriptor_computation/qchem270488/ 0
/scinet/niagara/software/commercial/qc52/exe/qcprog.exe_s fragments/C061/conf-0/spe_input.inp_270488.0 /gpfs/fs0/scratch/a/aspuru/rhickman/descriptor_computation/qchem270488/
                  Welcome to Q-Chem
     A Quantum Leap Into The Future Of Chemistry


 Q-Chem 5.2, Q-Chem, Inc., Pleasanton, CA (2019)

 License issued to: SRG Alan Aspuru-Guzik, University of Toronto

 Yihan Shao,  Zhengting Gan,  E. Epifanovsky,  A. T. B. Gilbert,  M. Wormit,  
 J. Kussmann,  A. W. Lange,  A. Behn,  Jia Deng,  Xintian Feng,  D. Ghosh,  
 M. Goldey,  P. R. Horn,  L. D. Jacobson,  I. Kaliman,  T. Kus,  A. Landau,  
 Jie Liu,  E. I. Proynov,  R. M. Richard,  R. P. Steele,  E. J. Sundstrom,  
 H. L. Woodcock III,  P. M. Zimmerman,  D. Zuev,  B. Albrecht,  E. Alguire,  
 S. A. Baeppler,  D. Barton,  Z. Benda,  Y. A. Bernard,  E. J. Berquist,  
 K. B. Bravaya,  H. Burton,  D. Casanova,  Chun-Min Chang,  Yunqing Chen,  
 A. Chien,  K. D. Closser,  M. P. Coons,  S. Coriani,  S. Dasgupta,  
 A. L. Dempwolff,  M. Diedenhofen,  Hainam Do,  R. G. Edgar,  Po-Tung Fang,  
 S. Faraji,  S. Fatehi,  Qingguo Feng,  K. D. Fenk,  J. Fosso-Tande,  
 J. Gayvert,  Qinghui Ge,  A. Ghysels,  G. Gidofalvi,  J. Gomes,  
 J. Gonthier,  A. Gunina,  D. Hait,  M. W. D. Hanson-Heine,  
 P. H. P. Harbach,  A. W. Hauser,  M. F. Herbst,  J. E. Herr,  
 E. G. Hohenstein,  Z. C. Holden,  Kerwin Hui,  B. C. Huynh,  T.-C. Jagau,  
 Hyunjun Ji,  B. Kaduk,  K. Khistyaev,  Jaehoon Kim,  P. Klunzinger,  K. Koh,  
 D. Kosenkov,  L. Koulias,  T. Kowalczyk,  C. M. Krauter,  A. Kunitsa,  
 Ka Un Lao,  A. Laurent,  K. V. Lawler,  Joonho Lee,  D. Lefrancois,  
 S. Lehtola,  D. S. Levine,  Yi-Pei Li,  You-Sheng Lin,  Fenglai Liu,  
 E. Livshits,  A. Luenser,  P. Manohar,  E. Mansoor,  S. F. Manzer,  
 Shan-Ping Mao,  Yuezhi Mao,  N. Mardirossian,  A. V. Marenich,  
 T. Markovich,  L. A. Martinez-Martinez,  S. A. Maurer,  N. J. Mayhall,  
 S. C. McKenzie,  J.-M. Mewes,  P. Morgante,  A. F. Morrison,  
 J. W. Mullinax,  K. Nanda,  T. S. Nguyen-Beck,  R. Olivares-Amaya,  
 J. A. Parkhill,  Zheng Pei,  T. M. Perrine,  F. Plasser,  P. Pokhilko,  
 S. Prager,  A. Prociuk,  E. Ramos,  D. R. Rehn,  F. Rob,  M. Scheurer,  
 M. Schneider,  N. Sergueev,  S. M. Sharada,  S. Sharma,  D. W. Small,  
 T. Stauch,  T. Stein,  Yu-Chuan Su,  A. J. W. Thom,  A. Tkatchenko,  
 T. Tsuchimochi,  N. M. Tubman,  L. Vogt,  M. L. Vidal,  O. Vydrov,  
 M. A. Watson,  J. Wenzel,  M. de Wergifosse,  T. A. Wesolowski,  A. White,  
 J. Witte,  A. Yamada,  Jun Yang,  K. Yao,  S. Yeganeh,  S. R. Yost,  
 Zhi-Qiang You,  A. Zech,  Igor Ying Zhang,  Xing Zhang,  Yan Zhao,  
 Ying Zhu,  B. R. Brooks,  G. K. L. Chan,  C. J. Cramer,  M. S. Gordon,  
 W. J. Hehre,  A. Klamt,  M. W. Schmidt,  C. D. Sherrill,  D. G. Truhlar,  
 A. Aspuru-Guzik,  R. Baer,  A. T. Bell,  N. A. Besley,  Jeng-Da Chai,  
 A. E. DePrince, III,  R. A. DiStasio Jr.,  A. Dreuw,  B. D. Dunietz,  
 T. R. Furlani,  Chao-Ping Hsu,  Yousung Jung,  Jing Kong,  D. S. Lambrecht,  
 WanZhen Liang,  C. Ochsenfeld,  V. A. Rassolov,  L. V. Slipchenko,  
 J. E. Subotnik,  T. Van Voorhis,  J. M. Herbert,  A. I. Krylov,  
 P. M. W. Gill,  M. Head-Gordon

 Contributors to earlier versions of Q-Chem not listed above: 
 R. D. Adamson,  B. Austin,  J. Baker,  G. J. O. Beran,  K. Brandhorst,  
 S. T. Brown,  E. F. C. Byrd,  A. K. Chakraborty,  C.-L. Cheng,  
 Siu Hung Chien,  D. M. Chipman,  D. L. Crittenden,  H. Dachsel,  
 R. J. Doerksen,  A. D. Dutoi,  L. Fusti-Molnar,  W. A. Goddard III,  
 A. Golubeva-Zadorozhnaya,  S. R. Gwaltney,  G. Hawkins,  A. Heyden,  
 S. Hirata,  G. Kedziora,  F. J. Keil,  C. Kelley,  Jihan Kim,  R. A. King,  
 R. Z. Khaliullin,  P. P. Korambath,  W. Kurlancheek,  A. M. Lee,  M. S. Lee,  
 S. V. Levchenko,  Ching Yeh Lin,  D. Liotard,  R. C. Lochan,  I. Lotan,  
 P. E. Maslen,  N. Nair,  D. P. O'Neill,  D. Neuhauser,  E. Neuscamman,  
 C. M. Oana,  R. Olson,  B. Peters,  R. Peverati,  P. A. Pieniazek,  
 Y. M. Rhee,  J. Ritchie,  M. A. Rohrdanz,  E. Rosta,  N. J. Russ,  
 H. F. Schaefer III,  N. E. Schultz,  N. Shenvi,  A. C. Simmonett,  A. Sodt,  
 D. Stuck,  K. S. Thanthiriwatte,  V. Vanovschi,  Tao Wang,  A. Warshel,  
 C. F. Williams,  Q. Wu,  X. Xu,  W. Zhang

 Please cite Q-Chem as follows:
 Y. Shao et al., Mol. Phys. 113, 184-215 (2015)
 DOI: 10.1080/00268976.2014.952696

 Q-Chem 5.2.1 for Intel X86 EM64T Linux

 Parts of Q-Chem use Armadillo 8.300.2 (Tropical Shenanigans).
 http://arma.sourceforge.net/

 Q-Chem begins on Mon Feb  7 09:49:08 2022  

Host: 
0

     Scratch files written to /gpfs/fs0/scratch/a/aspuru/rhickman/descriptor_computation/qchem270488//
 Jul1719 |scratch|qcdevops|jenkins|workspace|build_RNUM -1
Processing $rem in /scinet/niagara/software/commercial/qc52/config/preferences:
	 MEM_TOTAL  4000 
NAlpha2: 96
NElect   96
Mult     1

Checking the input file for inconsistencies... 	...done.

--------------------------------------------------------------
User input:
--------------------------------------------------------------
$molecule
0 1
C         3.63353151140000    1.67492338930000   -0.39336916190000
C         2.87688632060000    0.76459640080000    0.20469875520000
C         1.41706364330000    0.72592463820000    0.13100516040000
C         0.69803047570000    1.90105546640000    0.14220764170000
C        -0.69568758510000    1.90190141690000    0.14243351930000
C        -1.41602093610000    0.72759882270000    0.13172368130000
C        -2.87583815620000    0.76799688950000    0.20580482790000
C        -3.63143152420000    1.67722941880000   -0.39521625020000
C        -0.71159156630000   -0.50968524370000    0.07779263080000
C        -1.38602747380000   -1.74559305360000   -0.01902830770000
C        -0.70199979480000   -2.92634496050000   -0.09685816180000
C         0.69807291230000   -2.92723526970000   -0.09754426950000
C         1.38376189190000   -1.74739523700000   -0.02030158720000
C         0.71111835760000   -0.51056290440000    0.07724069320000
H         4.70538549020000    1.67691366260000   -0.29095561890000
H         3.21336108230000    2.44105847580000   -1.02357278170000
H         3.34623857510000   -0.00322101180000    0.80599918340000
H         1.22308222760000    2.84361334600000    0.19356788550000
H        -1.21969043300000    2.84505276960000    0.19376934430000
H        -3.34577436040000    0.00263540180000    0.80982421150000
H        -3.21020493420000    2.44072805490000   -1.02796105330000
H        -4.70328585700000    1.68092140030000   -0.29281800800000
H        -2.46468187710000   -1.75527243450000   -0.05136384820000
H        -1.23713622160000   -3.86193033430000   -0.17044794540000
H         1.23191862490000   -3.86350147120000   -0.17183737100000
H         2.46235979890000   -1.75867143070000   -0.05374218700000
$end

$rem
BASIS = 6-31G*
GUI = 2
METHOD = B3LYP
PRINT_ORBITALS false
MOLDEN_FORMAT false
--------------------------------------------------------------
 ----------------------------------------------------------------
             Standard Nuclear Orientation (Angstroms)
    I     Atom           X                Y                Z
 ----------------------------------------------------------------
    1      C       3.6334943491    -1.6632443872     0.3784075548
    2      C       2.8768652961    -0.7495436161    -0.2145138408
    3      C       1.4170432462    -0.7112630364    -0.1406038958
    4      C       0.6979897085    -1.8862994605    -0.1584383249
    5      C      -0.6957283666    -1.8871199515    -0.1586696583
    6      C      -1.4160413614    -0.7128840049    -0.1413332465
    7      C      -2.8758592381    -0.7528380386    -0.2156419150
    8      C      -3.6314687265    -1.6654348070     0.3802380274
    9      C      -0.7115905690     0.5240637852    -0.0804201781
   10      C      -1.3860051028     1.7594172082     0.0233736504
   11      C      -0.7019569955     2.9396992216     0.1078660963
   12      C       0.6981157265     2.9405613630     0.1085579059
   13      C       1.3837842930     1.7611641406     0.0246584421
   14      C       0.7111193696     0.5249136429    -0.0798625967
   15      H       4.7053483536    -1.6646752540     0.2759849377
   16      H       3.2133102637    -2.4329164985     1.0042773001
   17      H       3.3462312191     0.0216468284    -0.8114713364
   18      H       1.2230251466    -2.8285615883    -0.2151167553
   19      H      -1.2197475385    -2.8299574869    -0.2153275354
   20      H      -3.3457818147     0.0159281545    -0.8153326445
   21      H      -3.2102557487    -2.4324994433     1.0086642079
   22      H      -4.7033230628    -1.6685302628     0.2778200533
   23      H      -2.4646593571     1.7689326587     0.0557627705
   24      H      -1.2370772425     3.8748636786     0.1867343587
   25      H       1.2319776301     3.8763841283     0.1881338429
   26      H       2.4623823757     1.7722327287     0.0581626762
 ----------------------------------------------------------------
 Molecular Point Group                 C1    NOp =  1
 Largest Abelian Subgroup              C1    NOp =  1
 Nuclear Repulsion Energy =         788.79599102 hartrees
 There are       48 alpha and       48 beta electrons
 Requested basis set is 6-31G(d)
 There are 80 shells and 234 basis functions

 Total QAlloc Memory Limit   4000 MB
 Mega-Array Size       188 MB
 MEM_STATIC part       192 MB
 A cutoff of  1.0D-08 yielded   2154 shell pairs
 There are     20476 function pairs
 Smallest overlap matrix eigenvalue = 2.27E-04

 Scale SEOQF with 1.000000e-01/1.000000e-01/1.000000e+00

 Standard Electronic Orientation quadrupole field applied
 Nucleus-field energy     =     0.0000000297 hartrees
 Guess from superposition of atomic densities
 Warning:  Energy on first SCF cycle will be non-variational
 SAD guess density has 96.000000 electrons

 -----------------------------------------------------------------------
  General SCF calculation program by
  Eric Jon Sundstrom, Paul Horn, Yuezhi Mao, Dmitri Zuev, Alec White,
  David Stuck, Shaama M.S., Shane Yost, Joonho Lee, David Small,
  Daniel Levine, Susi Lehtola, Hugh Burton, Evgeny Epifanovsky,
  Bang C. Huynh
 -----------------------------------------------------------------------
 Exchange:     0.2000 Hartree-Fock + 0.0800 Slater + 0.7200 B88
 Correlation:  0.1900 VWN1RPA + 0.8100 LYP
 Using SG-1 standard quadrature grid
 A restricted SCF calculation will be
 performed using DIIS
 SCF converges when DIIS error is below 1.0e-05
 ---------------------------------------
  Cycle       Energy         DIIS error
 ---------------------------------------
    1    -544.1227888842      5.36e-02  
    2    -540.4850016298      5.04e-03  
    3    -540.5235240863      4.61e-03  
    4    -540.6800836895      5.16e-04  
    5    -540.6805835902      4.20e-04  
    6    -540.6819201931      5.88e-05  
    7    -540.6819424811      2.17e-05  
    8    -540.6819455526      3.22e-06  Convergence criterion met
 ---------------------------------------
 SCF time:   CPU 40.00s  wall 40.00s 
 SCF   energy in the final basis set =     -540.6819455526
 Total energy in the final basis set =     -540.6819455526
 
 --------------------------------------------------------------
 
                    Orbital Energies (a.u.)
 --------------------------------------------------------------
 
 Alpha MOs
 -- Occupied --
-10.1942 -10.1938 -10.1935 -10.1934 -10.1894 -10.1894 -10.1862 -10.1858
-10.1849 -10.1848 -10.1845 -10.1839 -10.1799 -10.1799  -0.8804  -0.8288
 -0.8137  -0.7648  -0.7492  -0.7421  -0.7035  -0.6368  -0.6161  -0.6139
 -0.5757  -0.5438  -0.5193  -0.5043  -0.4904  -0.4668  -0.4568  -0.4384
 -0.4280  -0.4171  -0.4169  -0.3998  -0.3952  -0.3814  -0.3661  -0.3588
 -0.3361  -0.3315  -0.3212  -0.3078  -0.2658  -0.2564  -0.2439  -0.2007
 -- Virtual --
 -0.0503  -0.0047   0.0027   0.0188   0.0762   0.1031   0.1042   0.1205
  0.1225   0.1349   0.1414   0.1620   0.1632   0.1771   0.1876   0.2084
  0.2160   0.2232   0.2271   0.2723   0.2774   0.2916   0.3062   0.3214
  0.3381   0.3504   0.3538   0.3700   0.3772   0.4228   0.4667   0.4817
  0.5062   0.5119   0.5233   0.5315   0.5471   0.5548   0.5612   0.5653
  0.5687   0.5765   0.5837   0.5933   0.6058   0.6106   0.6182   0.6194
  0.6238   0.6308   0.6362   0.6364   0.6593   0.6769   0.6888   0.6951
  0.6992   0.7036   0.7330   0.7519   0.7698   0.8176   0.8299   0.8392
  0.8418   0.8549   0.8567   0.8585   0.8709   0.8867   0.8878   0.9072
  0.9447   0.9511   0.9519   0.9558   0.9695   0.9698   0.9918   1.0156
  1.0176   1.0342   1.0496   1.0587   1.1069   1.1304   1.1315   1.1621
  1.1837   1.1876   1.2093   1.2303   1.2601   1.2625   1.2954   1.3002
  1.3123   1.4031   1.4250   1.4366   1.4515   1.4647   1.4651   1.5011
  1.5035   1.5059   1.5268   1.5321   1.5797   1.6266   1.6691   1.6764
  1.7035   1.7417   1.7660   1.7800   1.8038   1.8367   1.8594   1.8963
  1.9216   1.9231   1.9350   1.9412   1.9423   1.9991   2.0206   2.0297
  2.0368   2.0659   2.0689   2.1006   2.1162   2.1501   2.1606   2.1867
  2.2122   2.2337   2.2562   2.2567   2.2729   2.2958   2.3031   2.3095
  2.3379   2.3588   2.3762   2.3797   2.4271   2.4714   2.4820   2.5436
  2.5970   2.6175   2.6397   2.6431   2.6728   2.6851   2.7441   2.7520
  2.7615   2.7976   2.7985   2.8232   2.8842   2.9577   3.0105   3.0549
  3.0630   3.1975   3.4246   3.5233   4.0962   4.1085   4.1202   4.1261
  4.1314   4.1408   4.1728   4.2395   4.3317   4.3358   4.3548   4.5187
  4.5535   4.8619
 --------------------------------------------------------------
 
          Ground-State Mulliken Net Atomic Charges

     Atom                 Charge (a.u.)
  ----------------------------------------
      1 C                    -0.336897
      2 C                    -0.131330
      3 C                     0.105003
      4 C                    -0.197324
      5 C                    -0.197249
      6 C                     0.104827
      7 C                    -0.131498
      8 C                    -0.336782
      9 C                     0.072482
     10 C                    -0.196505
     11 C                    -0.129994
     12 C                    -0.130001
     13 C                    -0.196511
     14 C                     0.072382
     15 H                     0.142236
     16 H                     0.145202
     17 H                     0.139741
     18 H                     0.129864
     19 H                     0.129882
     20 H                     0.139796
     21 H                     0.145226
     22 H                     0.142238
     23 H                     0.129798
     24 H                     0.127812
     25 H                     0.127809
     26 H                     0.129794
  ----------------------------------------
  Sum of atomic charges =     0.000000

 -----------------------------------------------------------------
                    Cartesian Multipole Moments
 -----------------------------------------------------------------
    Charge (ESU x 10^10)
                 0.0000
    Dipole Moment (Debye)
         X      -0.0009      Y       0.1429      Z      -0.0447
       Tot       0.1497
    Quadrupole Moments (Debye-Ang)
        XX     -72.9583     XY       0.0014     YY     -73.4392
        XZ       0.0043     YZ      -1.5789     ZZ     -85.5028
    Octopole Moments (Debye-Ang^2)
       XXX      -0.0043    XXY       0.2816    XYY       0.0172
       YYY       8.3517    XXZ      -2.4645    XYZ       0.0106
       YYZ       7.5483    XZZ      -0.0279    YZZ      -2.3869
       ZZZ       0.0087
    Hexadecapole Moments (Debye-Ang^3)
      XXXX   -2018.6026   XXXY       0.0644   XXYY    -595.2133
      XYYY      -0.1193   YYYY   -1446.3105   XXXZ       0.0412
      XXYZ     -22.9761   XYYZ      -0.0149   YYYZ      -3.2215
      XXZZ    -405.8176   XYZZ       0.0449   YYZZ    -300.1886
      XZZZ      -0.0028   YZZZ      -4.2884   ZZZZ    -121.4272
 -----------------------------------------------------------------
Archival summary:
1\1\nia0231.scinet.local\SP\ProcedureUnspecified\6-31G*\1412\rhickman\MonFeb709:49:482022MonFeb709:49:482022\0\\#,ProcedureUnspecified,6-31G*,\\0,1\C\C,1,1.41128\H,2,1.07918,1,119.181\C,2,1.36679,1,121.418,3,178.804,0\H,4,1.08033,2,120.273,1,-179.998,0\C,4,1.40007,2,120.069,1,-0.758552,0\H,6,1.08033,4,119.652,2,-179.234,0\C,6,1.36681,4,120.073,2,0.0041928,0\H,8,1.07918,6,119.382,4,-178.041,0\C,8,1.41128,6,121.42,4,0.756943,0\C,1,1.42478,2,121.79,3,-0.113805,0\C,11,1.37767,1,118.816,2,-176.03,0\H,12,1.08016,11,119.405,1,-179.355,0\C,12,1.39372,11,121.49,1,-1.94714,0\H,14,1.08015,12,119.049,11,-177.405,0\C,14,1.3777,12,121.495,11,0.01267,0\C,16,1.46219,14,119.874,12,-176.674,0\H,17,1.08231,16,116.244,14,141.265,0\C,17,1.32623,16,124.404,14,-37.7775,0\H,19,1.07674,17,121.757,16,178.504,0\H,19,1.07734,17,121.965,16,-2.72526,0\C,11,1.46225,1,121.299,2,5.36502,0\H,22,1.08234,11,116.244,1,37.501,0\C,22,1.32622,11,124.386,1,-143.453,0\H,24,1.07674,22,121.763,11,-178.513,0\H,24,1.07737,22,121.955,11,2.71597,0\\\@

 Total job time:  40.34s(wall), 40.21s(cpu) 
 Mon Feb  7 09:49:48 2022

        *************************************************************
        *                                                           *
        *  Thank you very much for using Q-Chem.  Have a nice day.  *
        *                                                           *
        *************************************************************


