
Running Job 1 of 1 fragments/A013/conf-1/spe_input.inp
qchem fragments/A013/conf-1/spe_input.inp_272363.0 /gpfs/fs0/scratch/a/aspuru/rhickman/descriptor_computation/qchem272363/ 0
/scinet/niagara/software/commercial/qc52/exe/qcprog.exe_s fragments/A013/conf-1/spe_input.inp_272363.0 /gpfs/fs0/scratch/a/aspuru/rhickman/descriptor_computation/qchem272363/
                  Welcome to Q-Chem
     A Quantum Leap Into The Future Of Chemistry


 Q-Chem 5.2, Q-Chem, Inc., Pleasanton, CA (2019)

 License issued to: SRG Alan Aspuru-Guzik, University of Toronto

 Yihan Shao,  Zhengting Gan,  E. Epifanovsky,  A. T. B. Gilbert,  M. Wormit,  
 J. Kussmann,  A. W. Lange,  A. Behn,  Jia Deng,  Xintian Feng,  D. Ghosh,  
 M. Goldey,  P. R. Horn,  L. D. Jacobson,  I. Kaliman,  T. Kus,  A. Landau,  
 Jie Liu,  E. I. Proynov,  R. M. Richard,  R. P. Steele,  E. J. Sundstrom,  
 H. L. Woodcock III,  P. M. Zimmerman,  D. Zuev,  B. Albrecht,  E. Alguire,  
 S. A. Baeppler,  D. Barton,  Z. Benda,  Y. A. Bernard,  E. J. Berquist,  
 K. B. Bravaya,  H. Burton,  D. Casanova,  Chun-Min Chang,  Yunqing Chen,  
 A. Chien,  K. D. Closser,  M. P. Coons,  S. Coriani,  S. Dasgupta,  
 A. L. Dempwolff,  M. Diedenhofen,  Hainam Do,  R. G. Edgar,  Po-Tung Fang,  
 S. Faraji,  S. Fatehi,  Qingguo Feng,  K. D. Fenk,  J. Fosso-Tande,  
 J. Gayvert,  Qinghui Ge,  A. Ghysels,  G. Gidofalvi,  J. Gomes,  
 J. Gonthier,  A. Gunina,  D. Hait,  M. W. D. Hanson-Heine,  
 P. H. P. Harbach,  A. W. Hauser,  M. F. Herbst,  J. E. Herr,  
 E. G. Hohenstein,  Z. C. Holden,  Kerwin Hui,  B. C. Huynh,  T.-C. Jagau,  
 Hyunjun Ji,  B. Kaduk,  K. Khistyaev,  Jaehoon Kim,  P. Klunzinger,  K. Koh,  
 D. Kosenkov,  L. Koulias,  T. Kowalczyk,  C. M. Krauter,  A. Kunitsa,  
 Ka Un Lao,  A. Laurent,  K. V. Lawler,  Joonho Lee,  D. Lefrancois,  
 S. Lehtola,  D. S. Levine,  Yi-Pei Li,  You-Sheng Lin,  Fenglai Liu,  
 E. Livshits,  A. Luenser,  P. Manohar,  E. Mansoor,  S. F. Manzer,  
 Shan-Ping Mao,  Yuezhi Mao,  N. Mardirossian,  A. V. Marenich,  
 T. Markovich,  L. A. Martinez-Martinez,  S. A. Maurer,  N. J. Mayhall,  
 S. C. McKenzie,  J.-M. Mewes,  P. Morgante,  A. F. Morrison,  
 J. W. Mullinax,  K. Nanda,  T. S. Nguyen-Beck,  R. Olivares-Amaya,  
 J. A. Parkhill,  Zheng Pei,  T. M. Perrine,  F. Plasser,  P. Pokhilko,  
 S. Prager,  A. Prociuk,  E. Ramos,  D. R. Rehn,  F. Rob,  M. Scheurer,  
 M. Schneider,  N. Sergueev,  S. M. Sharada,  S. Sharma,  D. W. Small,  
 T. Stauch,  T. Stein,  Yu-Chuan Su,  A. J. W. Thom,  A. Tkatchenko,  
 T. Tsuchimochi,  N. M. Tubman,  L. Vogt,  M. L. Vidal,  O. Vydrov,  
 M. A. Watson,  J. Wenzel,  M. de Wergifosse,  T. A. Wesolowski,  A. White,  
 J. Witte,  A. Yamada,  Jun Yang,  K. Yao,  S. Yeganeh,  S. R. Yost,  
 Zhi-Qiang You,  A. Zech,  Igor Ying Zhang,  Xing Zhang,  Yan Zhao,  
 Ying Zhu,  B. R. Brooks,  G. K. L. Chan,  C. J. Cramer,  M. S. Gordon,  
 W. J. Hehre,  A. Klamt,  M. W. Schmidt,  C. D. Sherrill,  D. G. Truhlar,  
 A. Aspuru-Guzik,  R. Baer,  A. T. Bell,  N. A. Besley,  Jeng-Da Chai,  
 A. E. DePrince, III,  R. A. DiStasio Jr.,  A. Dreuw,  B. D. Dunietz,  
 T. R. Furlani,  Chao-Ping Hsu,  Yousung Jung,  Jing Kong,  D. S. Lambrecht,  
 WanZhen Liang,  C. Ochsenfeld,  V. A. Rassolov,  L. V. Slipchenko,  
 J. E. Subotnik,  T. Van Voorhis,  J. M. Herbert,  A. I. Krylov,  
 P. M. W. Gill,  M. Head-Gordon

 Contributors to earlier versions of Q-Chem not listed above: 
 R. D. Adamson,  B. Austin,  J. Baker,  G. J. O. Beran,  K. Brandhorst,  
 S. T. Brown,  E. F. C. Byrd,  A. K. Chakraborty,  C.-L. Cheng,  
 Siu Hung Chien,  D. M. Chipman,  D. L. Crittenden,  H. Dachsel,  
 R. J. Doerksen,  A. D. Dutoi,  L. Fusti-Molnar,  W. A. Goddard III,  
 A. Golubeva-Zadorozhnaya,  S. R. Gwaltney,  G. Hawkins,  A. Heyden,  
 S. Hirata,  G. Kedziora,  F. J. Keil,  C. Kelley,  Jihan Kim,  R. A. King,  
 R. Z. Khaliullin,  P. P. Korambath,  W. Kurlancheek,  A. M. Lee,  M. S. Lee,  
 S. V. Levchenko,  Ching Yeh Lin,  D. Liotard,  R. C. Lochan,  I. Lotan,  
 P. E. Maslen,  N. Nair,  D. P. O'Neill,  D. Neuhauser,  E. Neuscamman,  
 C. M. Oana,  R. Olson,  B. Peters,  R. Peverati,  P. A. Pieniazek,  
 Y. M. Rhee,  J. Ritchie,  M. A. Rohrdanz,  E. Rosta,  N. J. Russ,  
 H. F. Schaefer III,  N. E. Schultz,  N. Shenvi,  A. C. Simmonett,  A. Sodt,  
 D. Stuck,  K. S. Thanthiriwatte,  V. Vanovschi,  Tao Wang,  A. Warshel,  
 C. F. Williams,  Q. Wu,  X. Xu,  W. Zhang

 Please cite Q-Chem as follows:
 Y. Shao et al., Mol. Phys. 113, 184-215 (2015)
 DOI: 10.1080/00268976.2014.952696

 Q-Chem 5.2.1 for Intel X86 EM64T Linux

 Parts of Q-Chem use Armadillo 8.300.2 (Tropical Shenanigans).
 http://arma.sourceforge.net/

 Q-Chem begins on Mon Feb  7 09:53:23 2022  

Host: 
0

     Scratch files written to /gpfs/fs0/scratch/a/aspuru/rhickman/descriptor_computation/qchem272363//
 Jul1719 |scratch|qcdevops|jenkins|workspace|build_RNUM -1
Processing $rem in /scinet/niagara/software/commercial/qc52/config/preferences:
	 MEM_TOTAL  4000 
NAlpha2: 172
NElect   172
Mult     1

Checking the input file for inconsistencies... 	...done.

--------------------------------------------------------------
User input:
--------------------------------------------------------------
$molecule
0 1
F         6.50922088300000    0.09902456910000   -0.13762567690000
C         5.19470959370000    0.17591121230000   -0.33224219380000
F         4.95648978780000    1.01692919550000   -1.33069459120000
C         4.31662563650000   -0.50409103910000    0.39108802890000
C         2.86760533440000   -0.51027535530000    0.28386651800000
C         2.14611043090000   -1.30438994440000    1.17895988800000
C         0.76883917500000   -1.35566703730000    1.13691086210000
C         0.07486217190000   -0.61039504720000    0.18747992410000
N        -1.32203598070000   -0.67141388060000    0.13157109840000
C        -2.21894107590000    0.37681826530000    0.02132321190000
C        -1.84884548770000    1.78139199180000    0.11466592300000
C        -2.57272872970000    2.71058229050000   -0.63131288510000
C        -2.26285606430000    4.05468613960000   -0.55950364350000
C        -1.23434375770000    4.48856480720000    0.26157436770000
C        -0.52769888470000    3.57307003680000    1.02379458020000
C        -0.83141450650000    2.22619514100000    0.95675221620000
N        -3.44990805370000   -0.02647411710000   -0.12358804990000
C        -2.07362343310000   -1.82465217740000    0.04726352120000
C        -3.41102024570000   -1.39320801580000   -0.11560417610000
C        -4.43714530700000   -2.32270009090000   -0.24390805140000
C        -4.09686808740000   -3.65837058510000   -0.21857211370000
C        -2.77103338740000   -4.07390996380000   -0.08090650520000
C        -1.73677638790000   -3.16830273540000    0.04968214780000
C         0.78280569100000    0.17978014170000   -0.71556803550000
C         2.15944458810000    0.23296195210000   -0.66434488350000
H         4.74570839220000   -1.13203068860000    1.15872722330000
H         2.67545612510000   -1.88347485530000    1.92119410460000
H         0.22207588340000   -1.95792231770000    1.84686941800000
H        -3.37390876070000    2.35545488380000   -1.26030666010000
H        -2.82435904890000    4.76774566300000   -1.14473708920000
H        -0.98966800900000    5.53900260420000    0.31510890160000
H         0.26213057470000    3.90993835170000    1.67900386410000
H        -0.29045234170000    1.52490820000000    1.57522868910000
H        -5.45711242520000   -1.99549676830000   -0.36406307760000
H        -4.86960852880000   -4.40656989480000   -0.31516395850000
H        -2.54911617720000   -5.13076665360000   -0.07879799190000
H        -0.71184574870000   -3.49601385490000    0.14098005010000
H         0.24489975030000    0.75151091420000   -1.45664085990000
H         2.68202605400000    0.85205549640000   -1.37415446110000
$end

$rem
BASIS = 6-31G*
GUI = 2
METHOD = B3LYP
PRINT_ORBITALS false
MOLDEN_FORMAT false
--------------------------------------------------------------
 ----------------------------------------------------------------
             Standard Nuclear Orientation (Angstroms)
    I     Atom           X                Y                Z
 ----------------------------------------------------------------
    1      F      -6.4791342253     1.1085174228    -0.1008613195
    2      C      -5.2033055058     0.7877778322    -0.3036278546
    3      F      -5.1340788529    -0.0967888684    -1.2903986165
    4      C      -4.2078091981     1.3043424135     0.4026222736
    5      C      -2.7836056140     1.0416704223     0.2849697758
    6      C      -1.9192739516     1.7016872449     1.1622802047
    7      C      -0.5566299005     1.4974842579     1.1095933624
    8      C      -0.0213436909     0.6236530152     0.1670748431
    9      N       1.3622479266     0.4252079238     0.1002367913
   10      C       2.0494681134    -0.7719068544     0.0000938905
   11      C       1.4278015499    -2.0826700398     0.1181680832
   12      C       1.9606036604    -3.1398828399    -0.6182482038
   13      C       1.4090560647    -4.4026307117    -0.5230859476
   14      C       0.3263973576    -4.6277241502     0.3120430433
   15      C      -0.1918253928    -3.5869199128     1.0647906929
   16      C       0.3542289128    -2.3202458616     0.9743949749
   17      N       3.3321751213    -0.6046420764    -0.1599340627
   18      C       2.3126226737     1.4187444450    -0.0075734895
   19      C       3.5459158308     0.7457937803    -0.1731801841
   20      C       4.7244402613     1.4681912640    -0.3234202776
   21      C       4.6364164655     2.8439283332    -0.3166754353
   22      C       3.4113055970     3.4987597453    -0.1760993757
   23      C       2.2292134355     2.8013670215    -0.0238926085
   24      C      -0.8717096789    -0.0351041166    -0.7183477682
   25      C      -2.2339922435     0.1672402026    -0.6564627142
   26      H      -4.5061790653     2.0114411205     1.1633304886
   27      H      -2.3254400439     2.3789055190     1.8990721326
   28      H       0.0987765010     1.9985572996     1.8060636967
   29      H       2.8072277479    -2.9475387293    -1.2584587032
   30      H       1.8236939178    -5.2152210083    -1.1010220447
   31      H      -0.1071336697    -5.6141555120     0.3838465984
   32      H      -1.0236687609    -3.7630423697     1.7308443944
   33      H      -0.0420607954    -1.5225428522     1.5856076718
   34      H       5.6653915962     0.9568284234    -0.4456937315
   35      H       5.5328125659     3.4353398537    -0.4305456498
   36      H       3.3879942687     4.5783369628    -0.1890365405
   37      H       1.2831911310     3.3137359821     0.0695554921
   38      H      -0.4557635479    -0.7066574197    -1.4541553420
   39      H      -2.8687339559    -0.3548381353    -1.3526918497
 ----------------------------------------------------------------
 Molecular Point Group                 C1    NOp =  1
 Largest Abelian Subgroup              C1    NOp =  1
 Nuclear Repulsion Energy =        1992.37325053 hartrees
 There are       86 alpha and       86 beta electrons
 Requested basis set is 6-31G(d)
 There are 128 shells and 403 basis functions

 Total QAlloc Memory Limit   4000 MB
 Mega-Array Size       188 MB
 MEM_STATIC part       192 MB
 A cutoff of  1.0D-08 yielded   3887 shell pairs
 There are     41462 function pairs
 Smallest overlap matrix eigenvalue = 3.49E-04

 Scale SEOQF with 1.000000e-02/1.000000e-02/1.000000e-01

 Standard Electronic Orientation quadrupole field applied
 Nucleus-field energy     =     0.0000000039 hartrees
 Guess from superposition of atomic densities
 Warning:  Energy on first SCF cycle will be non-variational
 SAD guess density has 172.000000 electrons

 -----------------------------------------------------------------------
  General SCF calculation program by
  Eric Jon Sundstrom, Paul Horn, Yuezhi Mao, Dmitri Zuev, Alec White,
  David Stuck, Shaama M.S., Shane Yost, Joonho Lee, David Small,
  Daniel Levine, Susi Lehtola, Hugh Burton, Evgeny Epifanovsky,
  Bang C. Huynh
 -----------------------------------------------------------------------
 Exchange:     0.2000 Hartree-Fock + 0.0800 Slater + 0.7200 B88
 Correlation:  0.1900 VWN1RPA + 0.8100 LYP
 Using SG-1 standard quadrature grid
 A restricted SCF calculation will be
 performed using DIIS
 SCF converges when DIIS error is below 1.0e-05
 ---------------------------------------
  Cycle       Energy         DIIS error
 ---------------------------------------
    1   -1124.4707980710      4.17e-02  
    2   -1117.4780051857      4.14e-03  
    3   -1117.1431397204      5.92e-03  
    4   -1117.7902077574      1.54e-03  
    5   -1117.8345527484      5.28e-04  
    6   -1117.8397751974      2.17e-04  
    7   -1117.8407367497      4.45e-05  
    8   -1117.8407669964      2.23e-05  
    9   -1117.8407775191      4.51e-06  Convergence criterion met
 ---------------------------------------
 SCF time:   CPU 135.23s  wall 136.00s 
 SCF   energy in the final basis set =    -1117.8407775191
 Total energy in the final basis set =    -1117.8407775191
 
 --------------------------------------------------------------
 
                    Orbital Energies (a.u.)
 --------------------------------------------------------------
 
 Alpha MOs
 -- Occupied --
-24.7532 -24.7423 -14.3948 -14.3089 -10.3661 -10.2517 -10.2433 -10.2187
-10.2179 -10.2122 -10.2057 -10.2051 -10.2033 -10.2016 -10.2014 -10.2012
-10.1921 -10.1907 -10.1898 -10.1889 -10.1881 -10.1876 -10.1821 -10.1796
-10.1781  -1.2942  -1.2331  -1.0307  -0.9142  -0.8723  -0.8660  -0.8428
 -0.8143  -0.7776  -0.7677  -0.7560  -0.7511  -0.7368  -0.7211  -0.6656
 -0.6452  -0.6360  -0.6307  -0.6157  -0.5940  -0.5905  -0.5823  -0.5760
 -0.5479  -0.5396  -0.5276  -0.5223  -0.5042  -0.4925  -0.4766  -0.4718
 -0.4630  -0.4551  -0.4491  -0.4477  -0.4448  -0.4415  -0.4357  -0.4354
 -0.4260  -0.4234  -0.4195  -0.4131  -0.3951  -0.3887  -0.3739  -0.3648
 -0.3611  -0.3559  -0.3498  -0.3468  -0.3398  -0.3214  -0.2963  -0.2741
 -0.2684  -0.2626  -0.2530  -0.2393  -0.2149  -0.2118
 -- Virtual --
 -0.0462  -0.0316  -0.0191   0.0033   0.0138   0.0275   0.0506   0.0745
  0.0793   0.0967   0.1059   0.1125   0.1315   0.1434   0.1472   0.1514
  0.1558   0.1600   0.1663   0.1700   0.1781   0.1837   0.1859   0.1883
  0.1917   0.1969   0.1997   0.2184   0.2360   0.2544   0.2666   0.2752
  0.2851   0.2999   0.3052   0.3077   0.3128   0.3250   0.3294   0.3393
  0.3456   0.3637   0.3826   0.3988   0.4070   0.4165   0.4432   0.4650
  0.4718   0.4841   0.4945   0.5045   0.5141   0.5203   0.5254   0.5309
  0.5317   0.5377   0.5393   0.5515   0.5568   0.5586   0.5655   0.5671
  0.5733   0.5737   0.5799   0.5816   0.5875   0.5933   0.5954   0.6017
  0.6068   0.6092   0.6103   0.6134   0.6174   0.6184   0.6239   0.6260
  0.6314   0.6383   0.6451   0.6494   0.6605   0.6660   0.6757   0.6948
  0.7004   0.7149   0.7240   0.7589   0.7644   0.7741   0.7797   0.7878
  0.8123   0.8168   0.8234   0.8261   0.8327   0.8349   0.8415   0.8448
  0.8474   0.8528   0.8589   0.8617   0.8667   0.8722   0.8826   0.9016
  0.9091   0.9149   0.9255   0.9387   0.9468   0.9520   0.9576   0.9709
  0.9809   0.9880   0.9986   1.0050   1.0127   1.0238   1.0400   1.0480
  1.0720   1.0812   1.1031   1.1065   1.1166   1.1230   1.1432   1.1485
  1.1521   1.1649   1.1718   1.1840   1.1933   1.1981   1.2098   1.2160
  1.2222   1.2422   1.2533   1.2675   1.2744   1.2862   1.3047   1.3341
  1.3384   1.3445   1.3635   1.3827   1.3945   1.4036   1.4099   1.4213
  1.4240   1.4340   1.4410   1.4451   1.4532   1.4623   1.4677   1.4703
  1.4787   1.4861   1.4912   1.4934   1.4977   1.5049   1.5085   1.5124
  1.5227   1.5564   1.5858   1.6149   1.6601   1.7039   1.7199   1.7436
  1.7637   1.7713   1.7741   1.7840   1.8026   1.8108   1.8146   1.8286
  1.8339   1.8361   1.8522   1.8581   1.8622   1.8723   1.8936   1.8972
  1.9132   1.9221   1.9318   1.9384   1.9530   1.9631   1.9790   1.9817
  1.9935   1.9971   2.0067   2.0135   2.0203   2.0216   2.0274   2.0513
  2.0612   2.0688   2.0857   2.0946   2.1173   2.1293   2.1412   2.1433
  2.1482   2.1557   2.1603   2.1762   2.1928   2.2069   2.2244   2.2315
  2.2346   2.2662   2.2725   2.2735   2.2835   2.2929   2.3077   2.3128
  2.3197   2.3229   2.3428   2.3481   2.3709   2.4024   2.4066   2.4542
  2.4805   2.5160   2.5296   2.5337   2.5675   2.5789   2.5890   2.6057
  2.6135   2.6169   2.6405   2.6513   2.6647   2.6762   2.6859   2.6882
  2.7015   2.7069   2.7227   2.7404   2.7574   2.7651   2.7685   2.7806
  2.7894   2.8164   2.8419   2.8673   2.8745   2.8889   2.9209   2.9379
  2.9622   3.0133   3.0397   3.1026   3.1507   3.2145   3.2569   3.2700
  3.3396   3.4532   3.4812   3.5326   4.0673   4.0989   4.1032   4.1067
  4.1087   4.1243   4.1339   4.1447   4.1628   4.1834   4.2623   4.2757
  4.3062   4.3149   4.3868   4.4044   4.4239   4.4301   4.5153   4.5451
  4.7151   4.7530   4.7956   4.8411   5.2869
 --------------------------------------------------------------
 
          Ground-State Mulliken Net Atomic Charges

     Atom                 Charge (a.u.)
  ----------------------------------------
      1 F                    -0.244974
      2 C                     0.547667
      3 F                    -0.232276
      4 C                    -0.301115
      5 C                     0.206107
      6 C                    -0.210107
      7 C                    -0.160522
      8 C                     0.252659
      9 N                    -0.660092
     10 C                     0.406676
     11 C                     0.087657
     12 C                    -0.147457
     13 C                    -0.138526
     14 C                    -0.119363
     15 C                    -0.140773
     16 C                    -0.157193
     17 N                    -0.552919
     18 C                     0.319649
     19 C                     0.240571
     20 C                    -0.181275
     21 C                    -0.140521
     22 C                    -0.149180
     23 C                    -0.166589
     24 C                    -0.132782
     25 C                    -0.207473
     26 H                     0.162493
     27 H                     0.137300
     28 H                     0.155770
     29 H                     0.156244
     30 H                     0.133516
     31 H                     0.130762
     32 H                     0.131678
     33 H                     0.146938
     34 H                     0.137583
     35 H                     0.123608
     36 H                     0.124853
     37 H                     0.135735
     38 H                     0.157321
     39 H                     0.148351
  ----------------------------------------
  Sum of atomic charges =     0.000000

 -----------------------------------------------------------------
                    Cartesian Multipole Moments
 -----------------------------------------------------------------
    Charge (ESU x 10^10)
                 0.0000
    Dipole Moment (Debye)
         X      -2.6073      Y       0.6530      Z       0.6818
       Tot       2.7730
    Quadrupole Moments (Debye-Ang)
        XX    -148.0920     XY       2.3992     YY    -127.2169
        XZ      -5.4754     YZ       4.9251     ZZ    -138.3638
    Octopole Moments (Debye-Ang^2)
       XXX     -55.8494    XXY      27.9146    XYY     -27.7053
       YYY     -18.3200    XXZ      -2.4158    XYZ       2.2596
       YYZ      -3.1031    XZZ     -42.9278    YZZ       0.2174
       ZZZ      -8.2577
    Hexadecapole Moments (Debye-Ang^3)
      XXXX   -7965.5869   XXXY      85.6846   XXYY   -1945.1189
      XYYY      -6.5816   YYYY   -3940.6584   XXXZ     -48.7637
      XXYZ      26.1808   XYYZ     -57.3927   YYYZ      54.5192
      XXZZ   -1394.8092   XYZZ     -50.3369   YYZZ    -811.5707
      XZZZ      55.5681   YZZZ      22.6887   ZZZZ    -487.9077
 -----------------------------------------------------------------
Archival summary:
1\1\nia0231.scinet.local\SP\ProcedureUnspecified\6-31G*\222114\rhickman\MonFeb709:55:392022MonFeb709:55:392022\0\\#,ProcedureUnspecified,6-31G*,\\0,1\N\C,1,1.37911\C,1,1.38397,2,105.98\N,3,1.30343,1,112.74,2,-0.0437349,0\C,4,1.36731,3,106.366,1,-0.0601459,0\C,2,1.38523,1,132.726,3,177.608,0\H,6,1.07991,2,121.688,1,0.773665,0\C,6,1.38089,2,116.99,1,-178.723,0\H,8,1.07991,6,119.191,2,-179.715,0\C,5,1.39045,4,130.291,3,-179.519,0\H,10,1.07788,5,120.377,4,-0.621296,0\C,10,1.37857,5,117.634,4,179.029,0\H,12,1.07994,10,119.538,5,179.968,0\C,1,1.39935,2,125.657,3,-174.534,0\C,14,1.39228,1,120.098,2,-52.6362,0\H,15,1.07968,14,119.642,1,-1.74835,0\C,15,1.37887,14,119.918,1,179.272,0\H,17,1.08003,15,119.378,14,179.796,0\C,14,1.39322,1,120.403,2,126.471,0\H,19,1.07954,14,119.481,1,0.408734,0\C,19,1.37862,14,120.345,1,-179.623,0\H,21,1.07712,19,118.826,14,-179.984,0\C,17,1.39727,15,121.155,14,0.198167,0\C,23,1.453,17,118.04,15,179.831,0\H,24,1.0806,23,116.484,17,0.728709,0\C,24,1.32538,23,128.507,17,-179.203,0\F,26,1.32701,24,128.087,23,0.0259749,0\F,26,1.33106,24,123.014,23,179.961,0\C,3,1.45551,1,124.126,2,177.395,0\C,29,1.3936,3,122.167,1,-34.3983,0\H,30,1.08026,29,120.288,3,-0.454074,0\C,30,1.38232,29,120.047,3,-179.163,0\H,32,1.0801,30,119.602,29,179.99,0\C,32,1.38508,30,120.347,29,0.303256,0\H,34,1.07989,32,120.004,30,-179.742,0\C,34,1.38573,32,119.853,30,0.846985,0\H,36,1.07992,34,120.018,32,179.169,0\C,36,1.38123,34,120.133,32,-0.808955,0\H,38,1.07872,36,121.151,34,179.62,0\\\@

 Total job time:  136.03s(wall), 135.67s(cpu) 
 Mon Feb  7 09:55:39 2022

        *************************************************************
        *                                                           *
        *  Thank you very much for using Q-Chem.  Have a nice day.  *
        *                                                           *
        *************************************************************


