22
 energy: -34.100078236494 gnorm: 0.000035456633 xtb: 6.4.1 (23d549d)
C         3.56955063420000   -0.28886930480000   -0.47563546890000
C         2.59098193700000    0.30864993960000    0.19019363560000
C         1.17801947930000   -0.06231673530000    0.10838109670000
C         0.83565480260000   -1.40235663330000   -0.03896289780000
C        -0.49248536090000   -1.77102493040000   -0.06216022450000
F        -0.81277545680000   -3.08327074550000   -0.17789364300000
C        -1.50247866760000   -0.83899615180000    0.04444879910000
C        -1.18993904220000    0.51290774950000    0.14808565030000
C        -2.30818808670000    1.45574498010000    0.21373884850000
C        -2.37803438790000    2.64086146830000   -0.38030137230000
C         0.16153695070000    0.91199110490000    0.20038026180000
N         0.48402059760000    2.24786450140000    0.28714362010000
H         4.59743266920000    0.00841312600000   -0.35816078440000
H         3.37929808280000   -1.08463230350000   -1.17533756120000
H         2.84010706060000    1.12285819770000    0.86215001470000
H         1.60217020560000   -2.15772164020000   -0.09892248940000
H        -2.53261413610000   -1.15920409600000    0.02507029340000
H        -3.16626445420000    1.09304720830000    0.76800472700000
H        -1.58886919280000    3.01977977750000   -1.00726703760000
H        -3.25919543430000    3.25503783490000   -0.29757182950000
H        -0.23444718350000    2.84211346770000    0.67175187040000
H         1.41960237680000    2.46284525760000    0.59074737490000
