46
 energy: -76.741808813999 gnorm: 0.000064217149 xtb: 6.4.1 (23d549d)
F        -3.15842607610000   -6.20232023370000    0.12751078730000
C        -3.16682910790000   -4.86732451080000    0.11891983400000
F        -4.42848148240000   -4.44956836450000    0.16855478580000
C        -2.06063542790000   -4.13973472670000    0.06967769420000
C        -1.91635956640000   -2.69433519680000    0.05573962700000
C        -0.62458983520000   -2.17188277680000    0.02866935880000
C        -0.44467664020000   -0.80013089070000    0.02093906130000
C         0.71848223450000    0.04289812460000   -0.02201370580000
C         2.08009692650000   -0.21562654460000   -0.04412441040000
C         2.97145685610000    0.84899859230000   -0.07058378830000
C         4.42143413830000    0.60470520810000   -0.10499968220000
C         4.99276600240000   -0.39265491240000    0.68197779830000
C         6.35554571880000   -0.62189810940000    0.64956336730000
C         7.17056421120000    0.13781301570000   -0.17276183080000
C         6.61341536550000    1.13038258830000   -0.96139782020000
C         5.25138620780000    1.36395161960000   -0.92666309340000
C         2.48242084640000    2.16252028560000   -0.05390265010000
C         1.13181225610000    2.44256190160000   -0.02442663860000
C         0.24580694210000    1.37478258960000   -0.02739821080000
N        -1.13491710070000    1.37142998180000    0.01669728640000
C        -1.95768357620000    2.50830734130000    0.02416746510000
C        -1.77934710330000    3.50486589340000   -0.93051258480000
C        -2.58897081680000    4.62552387530000   -0.91642651370000
C        -3.58416163460000    4.75652907560000    0.03784399900000
C        -3.76555920470000    3.76270548470000    0.98527158710000
C        -2.95434404800000    2.64308104560000    0.98583871480000
C        -1.56504645800000    0.06442481050000    0.04807697720000
C        -2.85535753840000   -0.44954393150000    0.04884016910000
C        -3.01534548620000   -1.81833221830000    0.05671640520000
H        -1.14434602410000   -4.71209661310000    0.03880765150000
H         0.23005061200000   -2.83145360200000    0.00971404510000
H         2.44126814950000   -1.23277842860000   -0.05905686830000
H         4.36445970330000   -0.97697093860000    1.33869227570000
H         6.78497337090000   -1.39500656340000    1.27036522550000
H         8.23507149490000   -0.04273140920000   -0.19881343140000
H         7.24358996830000    1.72364300220000   -1.60827890720000
H         4.82077288980000    2.12849203220000   -1.55720900930000
H         3.18850411860000    2.97954566560000   -0.03838903860000
H         0.77979369220000    3.46242806660000    0.01334499340000
H        -1.01693502600000    3.38801345310000   -1.68615007950000
H        -2.44712715630000    5.39609251850000   -1.65954788530000
H        -4.21698760930000    5.63095745340000    0.04302916520000
H        -4.53777888670000    3.86282106210000    1.73338571430000
H        -3.07800124230000    1.87629898720000    1.73594451500000
H        -3.71555960180000    0.20205172560000    0.03199941210000
H        -4.01523522950000   -2.21875481920000    0.05823330120000
