
Running Job 1 of 1 fragments/C038/conf-4/spe_input.inp
qchem fragments/C038/conf-4/spe_input.inp_46800.0 /gpfs/fs0/scratch/a/aspuru/rhickman/descriptor_computation/qchem46800/ 0
/scinet/niagara/software/commercial/qc52/exe/qcprog.exe_s fragments/C038/conf-4/spe_input.inp_46800.0 /gpfs/fs0/scratch/a/aspuru/rhickman/descriptor_computation/qchem46800/
                  Welcome to Q-Chem
     A Quantum Leap Into The Future Of Chemistry


 Q-Chem 5.2, Q-Chem, Inc., Pleasanton, CA (2019)

 License issued to: SRG Alan Aspuru-Guzik, University of Toronto

 Yihan Shao,  Zhengting Gan,  E. Epifanovsky,  A. T. B. Gilbert,  M. Wormit,  
 J. Kussmann,  A. W. Lange,  A. Behn,  Jia Deng,  Xintian Feng,  D. Ghosh,  
 M. Goldey,  P. R. Horn,  L. D. Jacobson,  I. Kaliman,  T. Kus,  A. Landau,  
 Jie Liu,  E. I. Proynov,  R. M. Richard,  R. P. Steele,  E. J. Sundstrom,  
 H. L. Woodcock III,  P. M. Zimmerman,  D. Zuev,  B. Albrecht,  E. Alguire,  
 S. A. Baeppler,  D. Barton,  Z. Benda,  Y. A. Bernard,  E. J. Berquist,  
 K. B. Bravaya,  H. Burton,  D. Casanova,  Chun-Min Chang,  Yunqing Chen,  
 A. Chien,  K. D. Closser,  M. P. Coons,  S. Coriani,  S. Dasgupta,  
 A. L. Dempwolff,  M. Diedenhofen,  Hainam Do,  R. G. Edgar,  Po-Tung Fang,  
 S. Faraji,  S. Fatehi,  Qingguo Feng,  K. D. Fenk,  J. Fosso-Tande,  
 J. Gayvert,  Qinghui Ge,  A. Ghysels,  G. Gidofalvi,  J. Gomes,  
 J. Gonthier,  A. Gunina,  D. Hait,  M. W. D. Hanson-Heine,  
 P. H. P. Harbach,  A. W. Hauser,  M. F. Herbst,  J. E. Herr,  
 E. G. Hohenstein,  Z. C. Holden,  Kerwin Hui,  B. C. Huynh,  T.-C. Jagau,  
 Hyunjun Ji,  B. Kaduk,  K. Khistyaev,  Jaehoon Kim,  P. Klunzinger,  K. Koh,  
 D. Kosenkov,  L. Koulias,  T. Kowalczyk,  C. M. Krauter,  A. Kunitsa,  
 Ka Un Lao,  A. Laurent,  K. V. Lawler,  Joonho Lee,  D. Lefrancois,  
 S. Lehtola,  D. S. Levine,  Yi-Pei Li,  You-Sheng Lin,  Fenglai Liu,  
 E. Livshits,  A. Luenser,  P. Manohar,  E. Mansoor,  S. F. Manzer,  
 Shan-Ping Mao,  Yuezhi Mao,  N. Mardirossian,  A. V. Marenich,  
 T. Markovich,  L. A. Martinez-Martinez,  S. A. Maurer,  N. J. Mayhall,  
 S. C. McKenzie,  J.-M. Mewes,  P. Morgante,  A. F. Morrison,  
 J. W. Mullinax,  K. Nanda,  T. S. Nguyen-Beck,  R. Olivares-Amaya,  
 J. A. Parkhill,  Zheng Pei,  T. M. Perrine,  F. Plasser,  P. Pokhilko,  
 S. Prager,  A. Prociuk,  E. Ramos,  D. R. Rehn,  F. Rob,  M. Scheurer,  
 M. Schneider,  N. Sergueev,  S. M. Sharada,  S. Sharma,  D. W. Small,  
 T. Stauch,  T. Stein,  Yu-Chuan Su,  A. J. W. Thom,  A. Tkatchenko,  
 T. Tsuchimochi,  N. M. Tubman,  L. Vogt,  M. L. Vidal,  O. Vydrov,  
 M. A. Watson,  J. Wenzel,  M. de Wergifosse,  T. A. Wesolowski,  A. White,  
 J. Witte,  A. Yamada,  Jun Yang,  K. Yao,  S. Yeganeh,  S. R. Yost,  
 Zhi-Qiang You,  A. Zech,  Igor Ying Zhang,  Xing Zhang,  Yan Zhao,  
 Ying Zhu,  B. R. Brooks,  G. K. L. Chan,  C. J. Cramer,  M. S. Gordon,  
 W. J. Hehre,  A. Klamt,  M. W. Schmidt,  C. D. Sherrill,  D. G. Truhlar,  
 A. Aspuru-Guzik,  R. Baer,  A. T. Bell,  N. A. Besley,  Jeng-Da Chai,  
 A. E. DePrince, III,  R. A. DiStasio Jr.,  A. Dreuw,  B. D. Dunietz,  
 T. R. Furlani,  Chao-Ping Hsu,  Yousung Jung,  Jing Kong,  D. S. Lambrecht,  
 WanZhen Liang,  C. Ochsenfeld,  V. A. Rassolov,  L. V. Slipchenko,  
 J. E. Subotnik,  T. Van Voorhis,  J. M. Herbert,  A. I. Krylov,  
 P. M. W. Gill,  M. Head-Gordon

 Contributors to earlier versions of Q-Chem not listed above: 
 R. D. Adamson,  B. Austin,  J. Baker,  G. J. O. Beran,  K. Brandhorst,  
 S. T. Brown,  E. F. C. Byrd,  A. K. Chakraborty,  C.-L. Cheng,  
 Siu Hung Chien,  D. M. Chipman,  D. L. Crittenden,  H. Dachsel,  
 R. J. Doerksen,  A. D. Dutoi,  L. Fusti-Molnar,  W. A. Goddard III,  
 A. Golubeva-Zadorozhnaya,  S. R. Gwaltney,  G. Hawkins,  A. Heyden,  
 S. Hirata,  G. Kedziora,  F. J. Keil,  C. Kelley,  Jihan Kim,  R. A. King,  
 R. Z. Khaliullin,  P. P. Korambath,  W. Kurlancheek,  A. M. Lee,  M. S. Lee,  
 S. V. Levchenko,  Ching Yeh Lin,  D. Liotard,  R. C. Lochan,  I. Lotan,  
 P. E. Maslen,  N. Nair,  D. P. O'Neill,  D. Neuhauser,  E. Neuscamman,  
 C. M. Oana,  R. Olson,  B. Peters,  R. Peverati,  P. A. Pieniazek,  
 Y. M. Rhee,  J. Ritchie,  M. A. Rohrdanz,  E. Rosta,  N. J. Russ,  
 H. F. Schaefer III,  N. E. Schultz,  N. Shenvi,  A. C. Simmonett,  A. Sodt,  
 D. Stuck,  K. S. Thanthiriwatte,  V. Vanovschi,  Tao Wang,  A. Warshel,  
 C. F. Williams,  Q. Wu,  X. Xu,  W. Zhang

 Please cite Q-Chem as follows:
 Y. Shao et al., Mol. Phys. 113, 184-215 (2015)
 DOI: 10.1080/00268976.2014.952696

 Q-Chem 5.2.1 for Intel X86 EM64T Linux

 Parts of Q-Chem use Armadillo 8.300.2 (Tropical Shenanigans).
 http://arma.sourceforge.net/

 Q-Chem begins on Mon Feb  7 13:35:14 2022  

Host: 
0

     Scratch files written to /gpfs/fs0/scratch/a/aspuru/rhickman/descriptor_computation/qchem46800//
 Jul1719 |scratch|qcdevops|jenkins|workspace|build_RNUM -1
Processing $rem in /scinet/niagara/software/commercial/qc52/config/preferences:
	 MEM_TOTAL  4000 
NAlpha2: 156
NElect   156
Mult     1

Checking the input file for inconsistencies... 	...done.

--------------------------------------------------------------
User input:
--------------------------------------------------------------
$molecule
0 1
C        -5.91995947850000    2.39277566250000   -0.05047008130000
C        -6.00888704910000    1.06507871770000   -0.02971394940000
C        -4.89157229810000    0.16455485470000   -0.01147693630000
C        -4.93443121490000   -1.20916829990000    0.01016184310000
C        -3.67332957900000   -1.81222558520000    0.02423688170000
C        -2.63788255680000   -0.90390535310000    0.01356810740000
C        -1.23861523960000   -1.16916807110000    0.02247420090000
C        -0.60664903840000   -2.39366563690000    0.04884007590000
C         0.78609904430000   -2.30125344430000    0.04983177440000
C         1.25045549950000   -1.00388214990000    0.02411977720000
C         2.60229395510000   -0.55591632130000    0.01666270260000
C         3.75002136840000   -1.31901366120000    0.03450858880000
C         4.92245838360000   -0.55921465840000    0.01900748890000
C         4.70042338330000    0.79743599510000   -0.01090036220000
C         5.63466525040000    1.88901732160000   -0.03438936460000
C         6.96065356830000    1.76760735600000   -0.03253328670000
S         2.99454111580000    1.13587230850000   -0.01974714980000
S        -0.07452007840000    0.12235151180000   -0.00142045610000
S        -3.24547925820000    0.72514280030000   -0.01457732730000
H        -6.79449818440000    3.01840334120000   -0.06328461590000
H        -4.96417677460000    2.89051070910000   -0.05489477430000
H        -6.97746327550000    0.58067065570000   -0.02533891020000
H        -5.85760330840000   -1.76189877560000    0.01540699820000
H        -3.52178813650000   -2.87616180260000    0.04135411040000
H        -1.13847605500000   -3.32747886690000    0.06705470020000
H         1.43669486130000   -3.15656188680000    0.06867418350000
H         3.73843041210000   -2.39363453850000    0.05798854550000
H         5.90555241300000   -0.99377192920000    0.02940803320000
H         5.18544818580000    2.87354908550000   -0.05506601960000
H         7.44905980490000    0.80899433100000   -0.01240200440000
H         7.60014498400000    2.63209721130000   -0.05122008680000
$end

$rem
BASIS = 6-31G*
GUI = 2
METHOD = B3LYP
PRINT_ORBITALS false
MOLDEN_FORMAT false
--------------------------------------------------------------
 ----------------------------------------------------------------
             Standard Nuclear Orientation (Angstroms)
    I     Atom           X                Y                Z
 ----------------------------------------------------------------
    1      C       5.8192259650    -2.6486747687     0.0041888095
    2      C       5.9645213630    -1.3258078832    -0.0013390921
    3      C       4.8865023993    -0.3784208446    -0.0023301351
    4      C       4.9877276034     0.9923972907    -0.0079450142
    5      C       3.7534045760     1.6486745566    -0.0073565012
    6      C       2.6802748292     0.7851557785    -0.0012027150
    7      C       1.2935494045     1.1097807481     0.0007667121
    8      C       0.7142129855     2.3603160000     0.0020414381
    9      C      -0.6812051848     2.3272256068     0.0032139435
   10      C      -1.2002987094     1.0505102955     0.0027380305
   11      C      -2.5699599562     0.6603510394     0.0025780646
   12      C      -3.6842074917     1.4717479503     0.0038909302
   13      C      -4.8878863559     0.7623134261     0.0020989155
   14      C      -4.7237284609    -0.6028752187    -0.0005780510
   15      C      -5.7035326961    -1.6540101449    -0.0034796622
   16      C      -7.0231597898    -1.4763345227    -0.0056129297
   17      S      -3.0337768737    -1.0136249463    -0.0006695227
   18      S       0.0755982852    -0.1313100014     0.0011597246
   19      S       3.2180623914    -0.8684837744     0.0037541111
   20      H       6.6663755537    -3.3110412009     0.0048495995
   21      H       4.8431449486    -3.1053227927     0.0085204809
   22      H       6.9528176667    -0.8830169465    -0.0054403499
   23      H       5.9335657005     1.5053826128    -0.0125880863
   24      H       3.6472342675     2.7182203589    -0.0115666470
   25      H       1.2852596591     3.2708567799     0.0023267375
   26      H      -1.2948501855     3.2096207329     0.0042815302
   27      H      -3.6269408089     2.5451591792     0.0060238241
   28      H      -5.8516168113     1.2383862358     0.0026927627
   29      H      -5.2965784138    -2.6569628723    -0.0040524205
   30      H      -7.4703697088    -0.4976170484    -0.0051169302
   31      H      -7.6988256000    -2.3130613413    -0.0078759687
 ----------------------------------------------------------------
 Molecular Point Group                 C1    NOp =  1
 Largest Abelian Subgroup              C1    NOp =  1
 Nuclear Repulsion Energy =        1608.20045413 hartrees
 There are       78 alpha and       78 beta electrons
 Requested basis set is 6-31G(d)
 There are 103 shells and 321 basis functions

 Total QAlloc Memory Limit   4000 MB
 Mega-Array Size       188 MB
 MEM_STATIC part       192 MB
 A cutoff of  1.0D-08 yielded   2426 shell pairs
 There are     26171 function pairs
 Smallest overlap matrix eigenvalue = 4.73E-04

 Scale SEOQF with 1.000000e-02/1.000000e-01/1.000000e+00

 Standard Electronic Orientation quadrupole field applied
 Nucleus-field energy     =     0.0000000309 hartrees
 Guess from superposition of atomic densities
 Warning:  Energy on first SCF cycle will be non-variational
 SAD guess density has 156.000000 electrons

 -----------------------------------------------------------------------
  General SCF calculation program by
  Eric Jon Sundstrom, Paul Horn, Yuezhi Mao, Dmitri Zuev, Alec White,
  David Stuck, Shaama M.S., Shane Yost, Joonho Lee, David Small,
  Daniel Levine, Susi Lehtola, Hugh Burton, Evgeny Epifanovsky,
  Bang C. Huynh
 -----------------------------------------------------------------------
 Exchange:     0.2000 Hartree-Fock + 0.0800 Slater + 0.7200 B88
 Correlation:  0.1900 VWN1RPA + 0.8100 LYP
 Using SG-1 standard quadrature grid
 A restricted SCF calculation will be
 performed using DIIS
 SCF converges when DIIS error is below 1.0e-05
 ---------------------------------------
  Cycle       Energy         DIIS error
 ---------------------------------------
    1   -1816.3360513703      4.54e-02  
    2   -1811.0976433074      4.82e-03  
    3   -1810.7436182254      6.78e-03  
    4   -1811.3969947187      1.40e-03  
    5   -1811.4264859217      4.14e-04  
    6   -1811.4283271278      1.96e-04  
    7   -1811.4288301919      6.13e-05  
    8   -1811.4288812673      2.06e-05  
    9   -1811.4288873159      4.74e-06  Convergence criterion met
 ---------------------------------------
 SCF time:   CPU 63.22s  wall 64.00s 
 SCF   energy in the final basis set =    -1811.4288873159
 Total energy in the final basis set =    -1811.4288873159
 
 --------------------------------------------------------------
 
                    Orbital Energies (a.u.)
 --------------------------------------------------------------
 
 Alpha MOs
 -- Occupied --
-88.9107 -88.9091 -88.9061 -10.2294 -10.2291 -10.2285 -10.2284 -10.2210
-10.2193 -10.2005 -10.1986 -10.1962 -10.1956 -10.1950 -10.1936 -10.1929
-10.1927 -10.1838 -10.1818  -7.9726  -7.9710  -7.9681  -5.9367  -5.9350
 -5.9332  -5.9322  -5.9314  -5.9293  -5.9285  -5.9279  -5.9248  -0.9082
 -0.8942  -0.8777  -0.8070  -0.7945  -0.7653  -0.7564  -0.7413  -0.7322
 -0.7219  -0.6852  -0.6304  -0.6095  -0.5959  -0.5844  -0.5457  -0.5429
 -0.5323  -0.5252  -0.5104  -0.4936  -0.4699  -0.4565  -0.4432  -0.4264
 -0.4195  -0.4156  -0.4146  -0.4091  -0.3984  -0.3866  -0.3816  -0.3746
 -0.3711  -0.3654  -0.3625  -0.3602  -0.3450  -0.3314  -0.3230  -0.2997
 -0.2660  -0.2618  -0.2569  -0.2513  -0.2182  -0.1776
 -- Virtual --
 -0.0730  -0.0355  -0.0150   0.0000   0.0260   0.0295   0.0612   0.0730
  0.0813   0.0842   0.0939   0.1029   0.1091   0.1142   0.1169   0.1216
  0.1243   0.1383   0.1421   0.1496   0.1740   0.1745   0.1854   0.1976
  0.2026   0.2223   0.2305   0.2380   0.2412   0.2584   0.2641   0.2889
  0.2966   0.3040   0.3139   0.3261   0.3282   0.3423   0.3464   0.3592
  0.3596   0.3724   0.3994   0.4124   0.4275   0.4302   0.4449   0.4528
  0.4662   0.4741   0.4794   0.4901   0.5022   0.5176   0.5198   0.5219
  0.5301   0.5327   0.5440   0.5619   0.5728   0.5786   0.5876   0.5918
  0.5949   0.5980   0.6034   0.6041   0.6082   0.6138   0.6277   0.6331
  0.6428   0.6496   0.6575   0.6594   0.6702   0.6761   0.6813   0.6830
  0.6911   0.7076   0.7130   0.7773   0.7890   0.7918   0.8029   0.8059
  0.8117   0.8243   0.8291   0.8518   0.8575   0.8577   0.8600   0.8652
  0.8673   0.8740   0.8776   0.8850   0.8896   0.9005   0.9138   0.9237
  0.9257   0.9437   0.9469   0.9507   0.9566   0.9716   0.9773   0.9819
  0.9947   1.0094   1.0113   1.0158   1.0299   1.0413   1.0497   1.0624
  1.0711   1.0859   1.1075   1.1329   1.1417   1.1553   1.1598   1.1894
  1.2230   1.2377   1.2644   1.2816   1.2991   1.3044   1.3255   1.3324
  1.3352   1.3425   1.3518   1.3947   1.3954   1.3992   1.4008   1.4348
  1.4488   1.4551   1.4573   1.4777   1.5240   1.5471   1.5892   1.5965
  1.6031   1.6175   1.6183   1.6190   1.6301   1.6562   1.7168   1.7188
  1.7517   1.7524   1.8096   1.8270   1.8434   1.8570   1.8633   1.8927
  1.9381   1.9521   1.9690   1.9950   2.0184   2.0199   2.0266   2.0426
  2.0733   2.0863   2.1084   2.1190   2.1306   2.1398   2.1411   2.1474
  2.1719   2.1842   2.1869   2.2039   2.2382   2.2545   2.2622   2.2865
  2.3087   2.3100   2.3542   2.3850   2.3960   2.3968   2.4265   2.4366
  2.4401   2.4844   2.5067   2.5246   2.5343   2.5531   2.5814   2.5973
  2.6262   2.6535   2.6977   2.7273   2.7521   2.8306   2.8672   2.9267
  2.9360   2.9889   3.0337   3.0548   3.0923   3.1291   3.1750   3.2605
  3.9135   3.9694   4.0191   4.0684   4.0961   4.1109   4.1188   4.1276
  4.1369   4.1456   4.1769   4.2298   4.2668   4.3324   4.3833   4.5263
  4.5439   4.5799   4.5987
 --------------------------------------------------------------
 
          Ground-State Mulliken Net Atomic Charges

     Atom                 Charge (a.u.)
  ----------------------------------------
      1 C                    -0.376062
      2 C                    -0.058744
      3 C                    -0.128839
      4 C                    -0.150888
      5 C                    -0.109718
      6 C                    -0.167033
      7 C                    -0.151083
      8 C                    -0.122568
      9 C                    -0.123092
     10 C                    -0.151673
     11 C                    -0.168217
     12 C                    -0.108002
     13 C                    -0.134671
     14 C                    -0.119101
     15 C                    -0.092787
     16 C                    -0.341757
     17 S                     0.255536
     18 S                     0.271049
     19 S                     0.261261
     20 H                     0.147436
     21 H                     0.156953
     22 H                     0.138975
     23 H                     0.140466
     24 H                     0.139007
     25 H                     0.141780
     26 H                     0.141347
     27 H                     0.140122
     28 H                     0.140748
     29 H                     0.139198
     30 H                     0.142188
     31 H                     0.148167
  ----------------------------------------
  Sum of atomic charges =     0.000000

 -----------------------------------------------------------------
                    Cartesian Multipole Moments
 -----------------------------------------------------------------
    Charge (ESU x 10^10)
                 0.0000
    Dipole Moment (Debye)
         X      -0.0618      Y       1.8251      Z      -0.0039
       Tot       1.8261
    Quadrupole Moments (Debye-Ang)
        XX    -108.0386     XY       0.9044     YY    -116.8424
        XZ      -0.0330     YZ      -0.0122     ZZ    -138.8961
    Octopole Moments (Debye-Ang^2)
       XXX      10.8927    XXY       5.5365    XYY      -2.2082
       YYY      10.0156    XXZ      -0.3272    XYZ      -0.2282
       YYZ       0.0203    XZZ       0.3695    YZZ      -1.1541
       ZZZ       0.0132
    Hexadecapole Moments (Debye-Ang^3)
      XXXX  -10723.6234   XXXY      17.1605   XXYY   -2055.0668
      XYYY       6.3569   YYYY   -1503.7380   XXXZ      -1.0014
      XXYZ      -0.2458   XYYZ       0.1198   YYYZ      -0.1274
      XXZZ   -2247.2602   XYZZ       1.7652   YYZZ    -330.7587
      XZZZ      -0.0066   YZZZ      -0.0200   ZZZZ    -154.7423
 -----------------------------------------------------------------
Archival summary:
1\1\nia1977.scinet.local\SP\ProcedureUnspecified\6-31G*\31612\rhickman\MonFeb713:36:182022MonFeb713:36:182022\0\\#,ProcedureUnspecified,6-31G*,\\0,1\S\C,1,1.73888\C,2,1.37821,1,110.682\H,3,1.07479,2,123.049,1,179.982,0\C,3,1.39581,2,113.499,1,-0.0044064,0\H,5,1.07479,3,123.458,2,-180,0\C,5,1.37821,3,113.484,2,-0.00562349,0\C,7,1.42415,5,128.026,3,-179.946,0\C,8,1.37837,7,128.038,5,-0.0542409,0\H,9,1.07494,8,123.008,7,-0.0492508,0\C,9,1.39719,8,113.423,7,179.947,0\H,11,1.07491,9,123.196,8,-179.995,0\C,11,1.37503,9,113.658,8,0.00172256,0\C,2,1.42422,1,121.285,3,-179.977,0\C,14,1.37743,2,128.002,1,179.704,0\H,15,1.07481,14,123.154,2,-0.00140691,0\C,15,1.39795,14,113.178,2,-179.984,0\H,17,1.076,15,123.527,14,179.988,0\C,17,1.37456,15,113.776,14,0.00174555,0\C,19,1.43515,17,127.086,15,-179.998,0\H,20,1.08296,19,114.556,17,0.00684401,0\C,20,1.33083,19,125.042,17,-180,0\H,22,1.07536,20,121.753,19,-179.987,0\H,22,1.07763,20,121.34,19,-0.00614689,0\C,13,1.43698,11,130.155,9,-179.974,0\H,25,1.08237,13,114.926,11,-179.931,0\C,25,1.33154,13,125.32,11,0.0788562,0\H,27,1.07547,25,121.253,13,179.991,0\H,27,1.07605,25,122.225,13,-0.0123311,0\S,8,1.73705,7,121.387,5,179.899,0\S,14,1.7389,2,121.19,1,-0.271879,0\\\@

 Total job time:  63.70s(wall), 63.52s(cpu) 
 Mon Feb  7 13:36:18 2022

        *************************************************************
        *                                                           *
        *  Thank you very much for using Q-Chem.  Have a nice day.  *
        *                                                           *
        *************************************************************


