
Running Job 1 of 1 tidas/B032/conf-1/spe_input.inp
qchem tidas/B032/conf-1/spe_input.inp_148185.0 /home/a/aspuru/seifridm/acdc_laser/descriptor_computation/qchem148185/ 0
/gpfs/fs1/scinet/niagara/software/commercial/qc54/exe/qcprog.exe_s tidas/B032/conf-1/spe_input.inp_148185.0 /home/a/aspuru/seifridm/acdc_laser/descriptor_computation/qchem148185/
                  Welcome to Q-Chem
     A Quantum Leap Into The Future Of Chemistry


 Q-Chem 5.4, Q-Chem, Inc., Pleasanton, CA (2021)

 License issued to: SRG Alan Aspuru-Guzik, University of Toronto

 E. Epifanovsky,  A. T. B. Gilbert,  Xintian Feng,  Joonho Lee,  Yuezhi Mao,  
 N. Mardirossian,  P. Pokhilko,  A. White,  M. Wormit,  M. P. Coons,  
 A. L. Dempwolff,  Zhengting Gan,  D. Hait,  P. R. Horn,  L. D. Jacobson,  
 I. Kaliman,  J. Kussmann,  A. W. Lange,  Ka Un Lao,  D. S. Levine,  Jie Liu,  
 S. C. McKenzie,  A. F. Morrison,  K. Nanda,  F. Plasser,  D. R. Rehn,  
 M. L. Vidal,  Zhi-Qiang You,  Ying Zhu,  B. Alam,  B. Albrecht,  
 A. Aldossary,  E. Alguire,  J. H. Andersen,  D. Barton,  K. Begam,  A. Behn,  
 Y. A. Bernard,  E. J. Berquist,  H. Burton,  A. Carreras,  K. Carter-Fenk,  
 Romit Chakraborty,  A. D. Chien,  K. D. Closser,  V. Cofer-Shabica,  
 S. Dasgupta,  Jia Deng,  M. de Wergifosse,  M. Diedenhofen,  Hainam Do,  
 S. Ehlert,  Po-Tung Fang,  S. Fatehi,  Qingguo Feng,  T. Friedhoff,  
 J. Gayvert,  Qinghui Ge,  G. Gidofalvi,  M. Goldey,  J. Gomes,  
 C. Gonzalez-Espinoza,  S. Gulania,  A. Gunina,  M. W. D. Hanson-Heine,  
 P. H. P. Harbach,  A. W. Hauser,  M. F. Herbst,  M. Hernandez Vera,  
 M. Hodecker,  Z. C. Holden,  S. Houck,  Xunkun Huang,  Kerwin Hui,  
 B. C. Huynh,  M. Ivanov,  Hyunjun Ji,  Hanjie Jiang,  B. Kaduk,  S. Kaehler,  
 K. Khistyaev,  Jaehoon Kim,  P. Klunzinger,  Z. Koczor-Benda,  
 Joong Hoon Koh,  D. Kosenkov,  L. Koulias,  T. Kowalczyk,  C. M. Krauter,  
 K. Kue,  A. Kunitsa,  T. Kus,  A. Landau,  K. V. Lawler,  D. Lefrancois,  
 S. Lehtola,  Rain Li,  Yi-Pei Li,  Jiashu Liang,  M. Liebenthal,  
 Hung-Hsuan Lin,  You-Sheng Lin,  Fenglai Liu,  Kuan-Yu Liu,  
 M. Loipersberger,  A. Luenser,  A. Manjanath,  P. Manohar,  E. Mansoor,  
 S. F. Manzer,  Shan-Ping Mao,  A. V. Marenich,  T. Markovich,  S. Mason,  
 S. A. Maurer,  P. F. McLaughlin,  M. F. S. J. Menger,  J.-M. Mewes,  
 S. A. Mewes,  P. Morgante,  J. W. Mullinax,  K. J. Oosterbaan,  G. Paran,  
 Alexander C. Paul,  Suranjan K. Paul,  F. Pavosevic,  Zheng Pei,  S. Prager,  
 E. I. Proynov,  E. Ramos,  B. Rana,  A. E. Rask,  A. Rettig,  R. M. Richard,  
 F. Rob,  E. Rossomme,  T. Scheele,  M. Scheurer,  M. Schneider,  
 N. Sergueev,  S. M. Sharada,  W. Skomorowski,  D. W. Small,  C. J. Stein,  
 Yu-Chuan Su,  E. J. Sundstrom,  Zhen Tao,  J. Thirman,  T. Tsuchimochi,  
 N. M. Tubman,  S. P. Veccham,  O. Vydrov,  J. Wenzel,  J. Witte,  A. Yamada,  
 Kun Yao,  S. Yeganeh,  S. R. Yost,  A. Zech,  Igor Ying Zhang,  Xing Zhang,  
 Yu Zhang,  D. Zuev,  A. Aspuru-Guzik,  A. T. Bell,  N. A. Besley,  
 K. B. Bravaya,  B. R. Brooks,  D. Casanova,  Jeng-Da Chai,  S. Coriani,  
 C. J. Cramer,  A. E. DePrince, III,  R. A. DiStasio Jr.,  A. Dreuw,  
 B. D. Dunietz,  T. R. Furlani,  W. A. Goddard III,  S. Grimme,  
 S. Hammes-Schiffer,  T. Head-Gordon,  W. J. Hehre,  Chao-Ping Hsu,  
 T.-C. Jagau,  Yousung Jung,  A. Klamt,  Jing Kong,  D. S. Lambrecht,  
 WanZhen Liang,  N. J. Mayhall,  C. W. McCurdy,  J. B. Neaton,  T. Neudecker,  
 C. Ochsenfeld,  J. A. Parkhill,  R. Peverati,  V. A. Rassolov,  Yihan Shao,  
 L. V. Slipchenko,  R. P. Steele,  J. E. Subotnik,  A. J. W. Thom,  
 A. Tkatchenko,  D. G. Truhlar,  T. Van Voorhis,  T. A. Wesolowski,  
 K. B. Whaley,  H. L. Woodcock III,  P. M. Zimmerman,  S. Faraji,  
 P. M. W. Gill,  M. Head-Gordon,  J. M. Herbert,  A. I. Krylov

 Additional authors since Version 5.4.0: 
 Chandrima Chakravarty,  L. Cunha,  R. Kang,  Yongbin Kim,  S. Kotaru,  
 Shaozhi Li,  Xiangyuan Li,  F. Matz,  A. Molle,  V. Parravicini,  
 Haisheng Ren,  Hengyuan Shen,  Yingli Su,  Hung-Yi Tsai,  C. Utku,  
 Fang Wang,  Jeff Yang,  F. Zeller

 Contributors to earlier versions of Q-Chem not listed above: 
 R. D. Adamson,  B. Austin,  R. Baer,  J. Baker,  G. J. O. Beran,  
 K. Brandhorst,  S. T. Brown,  E. F. C. Byrd,  Arup K. Chakraborty,  
 G. K. L. Chan,  Chun-Min Chang,  Yunqing Chen,  C.-L. Cheng,  
 Siu Hung Chien,  D. M. Chipman,  D. L. Crittenden,  H. Dachsel,  
 R. J. Doerksen,  A. D. Dutoi,  R. G. Edgar,  J. Fosso-Tande,  
 L. Fusti-Molnar,  D. Ghosh,  A. Ghysels,  A. Golubeva-Zadorozhnaya,  
 J. Gonthier,  M. S. Gordon,  S. R. Gwaltney,  G. Hawkins,  J. E. Herr,  
 A. Heyden,  S. Hirata,  E. G. Hohenstein,  G. Kedziora,  F. J. Keil,  
 C. Kelley,  Jihan Kim,  R. A. King,  R. Z. Khaliullin,  P. P. Korambath,  
 W. Kurlancheek,  A. Laurent,  A. M. Lee,  M. S. Lee,  S. V. Levchenko,  
 Ching Yeh Lin,  D. Liotard,  E. Livshits,  R. C. Lochan,  I. Lotan,  
 L. A. Martinez-Martinez,  P. E. Maslen,  N. Nair,  D. P. O'Neill,  
 D. Neuhauser,  E. Neuscamman,  C. M. Oana,  R. Olivares-Amaya,  R. Olson,  
 T. M. Perrine,  B. Peters,  P. A. Pieniazek,  A. Prociuk,  Y. M. Rhee,  
 J. Ritchie,  M. A. Rohrdanz,  E. Rosta,  N. J. Russ,  H. F. Schaefer III,  
 M. W. Schmidt,  N. E. Schultz,  S. Sharma,  N. Shenvi,  C. D. Sherrill,  
 A. C. Simmonett,  A. Sodt,  T. Stein,  D. Stuck,  K. S. Thanthiriwatte,  
 V. Vanovschi,  L. Vogt,  Tao Wang,  A. Warshel,  M. A. Watson,  
 C. F. Williams,  Q. Wu,  X. Xu,  Jun Yang,  W. Zhang,  Yan Zhao

   Please cite Q-Chem as follows:
  "Software for the frontiers of quantum chemistry:
   An overview of developments in the Q-Chem 5 package"
   J. Chem. Phys. 155, 084801 (2021)
   https://doi.org/10.1063/5.0055522 (open access)

 Q-Chem 5.4.2 for Intel X86 EM64T Linux

 Parts of Q-Chem use Armadillo 9.900.5 (Nocturnal Misbehaviour).
 http://arma.sourceforge.net/

 Q-Chem begins on Fri Aug 12 13:12:48 2022  

 Host: 
0

     Scratch files written to /home/a/aspuru/seifridm/acdc_laser/descriptor_computation/qchem148185//
 Dec1321 |scratch|qcdevops|jenkins|workspace|build_RNUM 6959   
 Processing $rem in /gpfs/fs1/scinet/niagara/software/commercial/qc54/config/preferences:
 Processing $rem in /home/a/aspuru/seifridm/.qchemrc:

 Checking the input file for inconsistencies... 	...done.

--------------------------------------------------------------
User input:
--------------------------------------------------------------
$molecule
0 1
C           -4.18617393440000        0.74832295500000        0.15253541880000
C           -2.92794561760000        0.90686810440000       -0.23200400930000
C           -1.88243151020000       -0.10991737440000       -0.08538822980000
C           -2.19637358350000       -1.45112428700000       -0.28247247380000
C           -1.22723675430000       -2.42934886020000       -0.16343376820000
C            0.07251469440000       -2.06877325730000        0.12646156100000
C            0.41678988650000       -0.72775994330000        0.29792343450000
C            1.83251665970000       -0.44195290290000        0.55878955390000
C            2.56639977060000        0.46833486150000       -0.05514164450000
F            2.17142775330000        1.30783490770000       -1.00533423720000
F            3.86270342690000        0.66540641190000        0.18733613470000
C           -0.56637247250000        0.26282561780000        0.22666133430000
C           -0.26066363060000        1.69591026220000        0.54439157080000
H           -4.92424728410000        1.51872553110000        0.00752147050000
H           -4.52429118150000       -0.14890433000000        0.64413260660000
H           -2.62238679350000        1.83539279040000       -0.69597629830000
H           -3.20867496420000       -1.72232115020000       -0.54121100500000
H           -1.48276637300000       -3.46866506930000       -0.30537076120000
H            0.84139933420000       -2.82336857950000        0.20402570370000
H            2.34716717200000       -1.07937299900000        1.26286330130000
H           -0.10593497330000        2.26903634000000       -0.36993179350000
H            0.63835094950000        1.77860249960000        1.15030026450000
H           -1.08617930420000        2.14404270780000        1.09310640440000
$end

$rem
BASIS = 6-31G*
GUI = 2
METHOD = B3LYP
PRINT_ORBITALS false
MOLDEN_FORMAT false
$end
--------------------------------------------------------------
 ----------------------------------------------------------------
             Standard Nuclear Orientation (Angstroms)
    I     Atom           X                Y                Z
 ----------------------------------------------------------------
    1      C       3.9694794958     1.2054702643    -0.1685070239
    2      C       2.7022556323     1.2301420359     0.2183787691
    3      C       1.7767172703     0.1000878059     0.0967036959
    4      C       2.2391391043    -1.1933376284     0.3190873739
    5      C       1.3852455236    -2.2759826491     0.2238758466
    6      C       0.0526886959    -2.0689246320    -0.0673752034
    7      C      -0.4397982364    -0.7785621635    -0.2640033081
    8      C      -1.8791757194    -0.6581637628    -0.5242258656
    9      C      -2.7089312919     0.1766559922     0.0746910047
   10      F      -2.4082664212     1.0741664390     1.0061977511
   11      F      -4.0196697447     0.2226169275    -0.1659085372
   12      C       0.4265458820     0.3169615975    -0.2168670936
   13      C      -0.0382347650     1.7001405149    -0.5617395771
   14      H       4.6170627606     2.0563363316    -0.0421571340
   15      H       4.4047599617     0.3418685393    -0.6436184271
   16      H       2.2957681190     2.1279172217     0.6651026097
   17      H       3.2759849685    -1.3443617354     0.5786828755
   18      H       1.7557333001    -3.2771217894     0.3853654989
   19      H      -0.6271332892    -2.9061605840    -0.1264676325
   20      H      -2.3208340322    -1.3632840384    -1.2131617858
   21      H      -0.2541027595     2.2708236663     0.3416559191
   22      H      -0.9421778377     1.6694955380    -1.1651783670
   23      H       0.7307747528     2.2265123033    -1.1229381931
 ----------------------------------------------------------------
 Molecular Point Group                 C1    NOp =  1
 Largest Abelian Subgroup              C1    NOp =  1
 Nuclear Repulsion Energy =         752.09747238 hartrees
 There are       47 alpha and       47 beta electrons
 Requested basis set is 6-31G(d)
 There are 72 shells and 215 basis functions

 Total QAlloc Memory Limit   8000 MB
 Mega-Array Size       188 MB
 MEM_STATIC part       192 MB
 A cutoff of  1.0D-08 yielded   1845 shell pairs
 There are     17437 function pairs
 Smallest overlap matrix eigenvalue = 3.32E-04

 Scale SEOQF with 1.000000e-01/1.000000e-01/1.000000e+00

 Standard Electronic Orientation quadrupole field applied
 Nucleus-field energy     =     0.0000000085 hartrees
 Guess from superposition of atomic densities
 Warning:  Energy on first SCF cycle will be non-variational
 SAD guess density has 94.000000 electrons

 -----------------------------------------------------------------------
  General SCF calculation program by
  Eric Jon Sundstrom, Paul Horn, Yuezhi Mao, Dmitri Zuev, Alec White,
  David Stuck, Shaama M.S., Shane Yost, Joonho Lee, David Small,
  Daniel Levine, Susi Lehtola, Hugh Burton, Evgeny Epifanovsky,
  Bang C. Huynh
 -----------------------------------------------------------------------
 Exchange:     0.2000 Hartree-Fock + 0.0800 Slater + 0.7200 B88
 Correlation:  0.1900 VWN1RPA + 0.8100 LYP
 Using SG-1 standard quadrature grid
 A restricted SCF calculation will be
 performed using DIIS
 SCF converges when DIIS error is below 1.0e-05
 ---------------------------------------
  Cycle       Energy         DIIS error
 ---------------------------------------
    1    -627.6990575632      5.41e-02  
    2    -624.5948776454      6.17e-03  
    3    -624.4541571514      7.91e-03  
    4    -624.8102611577      1.51e-03  
    5    -624.8228913448      4.49e-04  
    6    -624.8237445078      2.40e-04  
    7    -624.8240921142      5.15e-05  
    8    -624.8241059229      1.79e-05  
    9    -624.8241080729      5.23e-06  Convergence criterion met
 ---------------------------------------
 SCF time:   CPU 49.92s  wall 51.00s 
 SCF   energy in the final basis set =     -624.8241080729
 Total energy in the final basis set =     -624.8241080729
 
 --------------------------------------------------------------
 
                    Orbital Energies (a.u.)
 --------------------------------------------------------------
 
 Alpha MOs
 -- Occupied --
-24.7394 -24.7324 -10.3542 -10.2001 -10.1995 -10.1955 -10.1911 -10.1893
-10.1862 -10.1845 -10.1837 -10.1808 -10.1761  -1.2817  -1.2214  -0.8717
 -0.8129  -0.7875  -0.7621  -0.7248  -0.6864  -0.6409  -0.6212  -0.5890
 -0.5739  -0.5538  -0.5207  -0.5152  -0.4994  -0.4744  -0.4529  -0.4456
 -0.4396  -0.4322  -0.4209  -0.4199  -0.4112  -0.4046  -0.3888  -0.3742
 -0.3583  -0.3421  -0.3334  -0.2943  -0.2738  -0.2322  -0.2234
 -- Virtual --
 -0.0259  -0.0108   0.0363   0.0594   0.0981   0.1083   0.1231   0.1405
  0.1445   0.1532   0.1585   0.1790   0.1851   0.1886   0.1935   0.2033
  0.2227   0.2520   0.2976   0.3068   0.3136   0.3464   0.3645   0.3749
  0.4025   0.4233   0.4776   0.4970   0.5046   0.5102   0.5225   0.5297
  0.5380   0.5598   0.5655   0.5788   0.5858   0.5937   0.6035   0.6141
  0.6201   0.6331   0.6470   0.6503   0.6599   0.6914   0.6952   0.7111
  0.7203   0.7470   0.7621   0.7905   0.8247   0.8342   0.8454   0.8540
  0.8619   0.8729   0.8935   0.9097   0.9241   0.9353   0.9444   0.9593
  0.9750   0.9830   0.9949   1.0009   1.0316   1.0653   1.0991   1.1215
  1.1228   1.1534   1.1749   1.1939   1.1995   1.2139   1.2262   1.2523
  1.2774   1.3059   1.3187   1.3529   1.3917   1.4087   1.4182   1.4372
  1.4640   1.4697   1.4886   1.5045   1.5242   1.5561   1.5920   1.6177
  1.6805   1.6894   1.7252   1.7683   1.7696   1.7936   1.8144   1.8277
  1.8313   1.8576   1.8682   1.9097   1.9231   1.9336   1.9437   1.9734
  1.9846   1.9899   2.0054   2.0234   2.0495   2.0645   2.0719   2.1309
  2.1463   2.1747   2.1788   2.2099   2.2212   2.2259   2.2695   2.2880
  2.3004   2.3165   2.3351   2.3600   2.4003   2.4325   2.4735   2.4915
  2.5221   2.5426   2.5906   2.6264   2.6681   2.6735   2.7004   2.7343
  2.7631   2.8010   2.8208   2.8646   2.9607   3.0151   3.0378   3.1184
  3.1634   3.2729   3.4693   4.1014   4.1198   4.1218   4.1402   4.1449
  4.2487   4.2654   4.3222   4.4182   4.4863   4.7852   4.7952   5.2410
 --------------------------------------------------------------
 
          Ground-State Mulliken Net Atomic Charges

     Atom                 Charge (a.u.)
  ----------------------------------------
      1 C                    -0.336753
      2 C                    -0.132148
      3 C                     0.094908
      4 C                    -0.176784
      5 C                    -0.133253
      6 C                    -0.170482
      7 C                     0.110345
      8 C                    -0.348456
      9 C                     0.570282
     10 F                    -0.235620
     11 F                    -0.248926
     12 C                     0.080551
     13 C                    -0.540242
     14 H                     0.142968
     15 H                     0.145159
     16 H                     0.138763
     17 H                     0.129003
     18 H                     0.128103
     19 H                     0.126341
     20 H                     0.168007
     21 H                     0.167842
     22 H                     0.156895
     23 H                     0.163497
  ----------------------------------------
  Sum of atomic charges =     0.000000

 -----------------------------------------------------------------
                    Cartesian Multipole Moments
 -----------------------------------------------------------------
    Charge (ESU x 10^10)
                 0.0000
    Dipole Moment (Debye)
         X       0.7491      Y      -0.4348      Z      -0.4046
       Tot       0.9560
    Quadrupole Moments (Debye-Ang)
        XX     -73.0968     XY       1.9190     YY     -68.3918
        XZ       1.4828     YZ       0.5073     ZZ     -76.0234
    Octopole Moments (Debye-Ang^2)
       XXX     -15.9018    XXY      -1.1614    XYY     -11.4752
       YYY       3.0790    XXZ      -1.2119    XYZ      -0.9556
       YYZ       3.8921    XZZ     -23.1164    YZZ       4.8672
       ZZZ       6.2591
    Hexadecapole Moments (Debye-Ang^3)
      XXXX   -2343.2661   XXXY      -6.3923   XXYY    -502.6291
      XYYY     -22.7492   YYYY    -798.8956   XXXZ     -25.7639
      XXYZ       3.6434   XYYZ       9.2707   YYYZ      11.6232
      XXZZ    -429.9787   XYZZ      -7.7611   YYZZ    -172.3312
      XZZZ     -14.5984   YZZZ      11.6429   ZZZZ    -157.1850
 -----------------------------------------------------------------
 Total job time:  52.10s(wall), 50.45s(cpu) 
 Fri Aug 12 13:13:40 2022

        *************************************************************
        *                                                           *
        *  Thank you very much for using Q-Chem.  Have a nice day.  *
        *                                                           *
        *************************************************************


