25
 energy: -40.159919748629 gnorm: 0.000197387227 xtb: 6.4.1 (23d549d)
C        -3.93840247350000   -1.69491782650000   -0.48121056450000
C        -3.60664174600000   -0.50847493900000    0.01430317820000
C        -2.26111134060000    0.03836836950000    0.09731547060000
C        -2.07037984630000    1.36320685610000    0.50749617840000
N        -0.90231648940000    1.96230332990000    0.55373393790000
C         0.19849960970000    1.29105029440000    0.22603771380000
C         1.42573004950000    2.07866137740000    0.18324563730000
C         2.42593573250000    1.87315610330000   -0.66277076280000
C         0.13870345010000   -0.07844489970000   -0.09021739750000
C         1.34792047310000   -0.92109357030000   -0.28751962820000
O         1.51408016220000   -1.67792857020000   -1.21049774780000
O         2.20484971030000   -0.78344039090000    0.73317948040000
C         3.40445438480000   -1.53864813040000    0.65769891180000
C        -1.10328388430000   -0.68831159970000   -0.18118612640000
H        -4.96351930150000   -2.02147642010000   -0.51055705590000
H        -3.21220455950000   -2.38147006010000   -0.88151561960000
H        -4.38196288650000    0.14855206180000    0.38880155670000
H        -2.91543612500000    1.97412457960000    0.80143839280000
H         1.43393447040000    2.92451777110000    0.85630820520000
H         2.40948419730000    1.07698760190000   -1.38973441840000
H         3.29455469430000    2.50921535650000   -0.67266241340000
H         3.82309438590000   -1.55178704150000    1.66073473870000
H         4.10119119100000   -1.06385505760000   -0.03669886320000
H         3.19388631500000   -2.55275118510000    0.31172082720000
H        -1.15075609150000   -1.73390202370000   -0.44578922260000
