28
 energy: -47.560537183100 gnorm: 0.000062307033 xtb: 6.4.1 (23d549d)
C         2.14597880430000   -3.66720539840000   -0.06853168340000
C         0.97752537980000   -3.03516706100000   -0.06784528520000
C         0.72317828380000   -1.60184546050000   -0.01571671410000
C        -0.59339806670000   -1.15866034910000   -0.05078918250000
C        -0.94393287920000    0.18704268400000    0.00784188250000
C        -2.36195711250000    0.56587813200000    0.02552972900000
O        -2.79135381810000    1.70064379080000    0.13435750700000
O        -3.18911394550000   -0.48701323190000   -0.07756971170000
C        -4.57500311970000   -0.18724222340000   -0.05765945070000
C         0.06543739100000    1.17911055060000    0.08112295820000
N        -0.25180460140000    2.48788689460000    0.13298120050000
C         1.41752534380000    0.75679999230000    0.09464279490000
C         2.54042024190000    1.69822796340000    0.16113281900000
C         2.64701526340000    2.82888771390000   -0.52448012400000
C         1.69947337550000   -0.60012745890000    0.07021985540000
F         3.00501135040000   -0.94189086720000    0.11208602780000
H         2.18425160450000   -4.74276672910000   -0.11188606020000
H         3.09446659170000   -3.16437979990000   -0.02874087000000
H         0.06904614370000   -3.62431687000000   -0.11307945510000
H        -1.38626646280000   -1.88701440470000   -0.11553028290000
H        -5.09164397260000   -1.13709127260000   -0.16852490370000
H        -4.83071357060000    0.48737933880000   -0.87762797590000
H        -4.84819579800000    0.29027252470000    0.88592286990000
H        -1.23197530850000    2.71443344750000    0.24316175360000
H         0.45802628490000    3.14959392520000    0.39636863180000
H         3.35734649920000    1.38387746210000    0.79916972000000
H         1.90151849880000    3.14961367670000   -1.23309377480000
H         3.51842468530000    3.45477275590000   -0.43263827090000
