
Running Job 1 of 1 fragments/C130/conf-8/spe_input.inp
qchem fragments/C130/conf-8/spe_input.inp_36584.0 /gpfs/fs0/scratch/a/aspuru/rhickman/descriptor_computation/qchem36584/ 0
/scinet/niagara/software/commercial/qc52/exe/qcprog.exe_s fragments/C130/conf-8/spe_input.inp_36584.0 /gpfs/fs0/scratch/a/aspuru/rhickman/descriptor_computation/qchem36584/
                  Welcome to Q-Chem
     A Quantum Leap Into The Future Of Chemistry


 Q-Chem 5.2, Q-Chem, Inc., Pleasanton, CA (2019)

 License issued to: SRG Alan Aspuru-Guzik, University of Toronto

 Yihan Shao,  Zhengting Gan,  E. Epifanovsky,  A. T. B. Gilbert,  M. Wormit,  
 J. Kussmann,  A. W. Lange,  A. Behn,  Jia Deng,  Xintian Feng,  D. Ghosh,  
 M. Goldey,  P. R. Horn,  L. D. Jacobson,  I. Kaliman,  T. Kus,  A. Landau,  
 Jie Liu,  E. I. Proynov,  R. M. Richard,  R. P. Steele,  E. J. Sundstrom,  
 H. L. Woodcock III,  P. M. Zimmerman,  D. Zuev,  B. Albrecht,  E. Alguire,  
 S. A. Baeppler,  D. Barton,  Z. Benda,  Y. A. Bernard,  E. J. Berquist,  
 K. B. Bravaya,  H. Burton,  D. Casanova,  Chun-Min Chang,  Yunqing Chen,  
 A. Chien,  K. D. Closser,  M. P. Coons,  S. Coriani,  S. Dasgupta,  
 A. L. Dempwolff,  M. Diedenhofen,  Hainam Do,  R. G. Edgar,  Po-Tung Fang,  
 S. Faraji,  S. Fatehi,  Qingguo Feng,  K. D. Fenk,  J. Fosso-Tande,  
 J. Gayvert,  Qinghui Ge,  A. Ghysels,  G. Gidofalvi,  J. Gomes,  
 J. Gonthier,  A. Gunina,  D. Hait,  M. W. D. Hanson-Heine,  
 P. H. P. Harbach,  A. W. Hauser,  M. F. Herbst,  J. E. Herr,  
 E. G. Hohenstein,  Z. C. Holden,  Kerwin Hui,  B. C. Huynh,  T.-C. Jagau,  
 Hyunjun Ji,  B. Kaduk,  K. Khistyaev,  Jaehoon Kim,  P. Klunzinger,  K. Koh,  
 D. Kosenkov,  L. Koulias,  T. Kowalczyk,  C. M. Krauter,  A. Kunitsa,  
 Ka Un Lao,  A. Laurent,  K. V. Lawler,  Joonho Lee,  D. Lefrancois,  
 S. Lehtola,  D. S. Levine,  Yi-Pei Li,  You-Sheng Lin,  Fenglai Liu,  
 E. Livshits,  A. Luenser,  P. Manohar,  E. Mansoor,  S. F. Manzer,  
 Shan-Ping Mao,  Yuezhi Mao,  N. Mardirossian,  A. V. Marenich,  
 T. Markovich,  L. A. Martinez-Martinez,  S. A. Maurer,  N. J. Mayhall,  
 S. C. McKenzie,  J.-M. Mewes,  P. Morgante,  A. F. Morrison,  
 J. W. Mullinax,  K. Nanda,  T. S. Nguyen-Beck,  R. Olivares-Amaya,  
 J. A. Parkhill,  Zheng Pei,  T. M. Perrine,  F. Plasser,  P. Pokhilko,  
 S. Prager,  A. Prociuk,  E. Ramos,  D. R. Rehn,  F. Rob,  M. Scheurer,  
 M. Schneider,  N. Sergueev,  S. M. Sharada,  S. Sharma,  D. W. Small,  
 T. Stauch,  T. Stein,  Yu-Chuan Su,  A. J. W. Thom,  A. Tkatchenko,  
 T. Tsuchimochi,  N. M. Tubman,  L. Vogt,  M. L. Vidal,  O. Vydrov,  
 M. A. Watson,  J. Wenzel,  M. de Wergifosse,  T. A. Wesolowski,  A. White,  
 J. Witte,  A. Yamada,  Jun Yang,  K. Yao,  S. Yeganeh,  S. R. Yost,  
 Zhi-Qiang You,  A. Zech,  Igor Ying Zhang,  Xing Zhang,  Yan Zhao,  
 Ying Zhu,  B. R. Brooks,  G. K. L. Chan,  C. J. Cramer,  M. S. Gordon,  
 W. J. Hehre,  A. Klamt,  M. W. Schmidt,  C. D. Sherrill,  D. G. Truhlar,  
 A. Aspuru-Guzik,  R. Baer,  A. T. Bell,  N. A. Besley,  Jeng-Da Chai,  
 A. E. DePrince, III,  R. A. DiStasio Jr.,  A. Dreuw,  B. D. Dunietz,  
 T. R. Furlani,  Chao-Ping Hsu,  Yousung Jung,  Jing Kong,  D. S. Lambrecht,  
 WanZhen Liang,  C. Ochsenfeld,  V. A. Rassolov,  L. V. Slipchenko,  
 J. E. Subotnik,  T. Van Voorhis,  J. M. Herbert,  A. I. Krylov,  
 P. M. W. Gill,  M. Head-Gordon

 Contributors to earlier versions of Q-Chem not listed above: 
 R. D. Adamson,  B. Austin,  J. Baker,  G. J. O. Beran,  K. Brandhorst,  
 S. T. Brown,  E. F. C. Byrd,  A. K. Chakraborty,  C.-L. Cheng,  
 Siu Hung Chien,  D. M. Chipman,  D. L. Crittenden,  H. Dachsel,  
 R. J. Doerksen,  A. D. Dutoi,  L. Fusti-Molnar,  W. A. Goddard III,  
 A. Golubeva-Zadorozhnaya,  S. R. Gwaltney,  G. Hawkins,  A. Heyden,  
 S. Hirata,  G. Kedziora,  F. J. Keil,  C. Kelley,  Jihan Kim,  R. A. King,  
 R. Z. Khaliullin,  P. P. Korambath,  W. Kurlancheek,  A. M. Lee,  M. S. Lee,  
 S. V. Levchenko,  Ching Yeh Lin,  D. Liotard,  R. C. Lochan,  I. Lotan,  
 P. E. Maslen,  N. Nair,  D. P. O'Neill,  D. Neuhauser,  E. Neuscamman,  
 C. M. Oana,  R. Olson,  B. Peters,  R. Peverati,  P. A. Pieniazek,  
 Y. M. Rhee,  J. Ritchie,  M. A. Rohrdanz,  E. Rosta,  N. J. Russ,  
 H. F. Schaefer III,  N. E. Schultz,  N. Shenvi,  A. C. Simmonett,  A. Sodt,  
 D. Stuck,  K. S. Thanthiriwatte,  V. Vanovschi,  Tao Wang,  A. Warshel,  
 C. F. Williams,  Q. Wu,  X. Xu,  W. Zhang

 Please cite Q-Chem as follows:
 Y. Shao et al., Mol. Phys. 113, 184-215 (2015)
 DOI: 10.1080/00268976.2014.952696

 Q-Chem 5.2.1 for Intel X86 EM64T Linux

 Parts of Q-Chem use Armadillo 8.300.2 (Tropical Shenanigans).
 http://arma.sourceforge.net/

 Q-Chem begins on Mon Feb  7 13:04:09 2022  

Host: 
0

     Scratch files written to /gpfs/fs0/scratch/a/aspuru/rhickman/descriptor_computation/qchem36584//
 Jul1719 |scratch|qcdevops|jenkins|workspace|build_RNUM -1
Processing $rem in /scinet/niagara/software/commercial/qc52/config/preferences:
	 MEM_TOTAL  4000 
NAlpha2: 180
NElect   180
Mult     1

Checking the input file for inconsistencies... 	...done.

--------------------------------------------------------------
User input:
--------------------------------------------------------------
$molecule
0 1
C        -5.99946493880000   -0.63129546320000    0.04870246710000
C        -4.88678413850000   -1.28525699420000    0.36303820940000
C        -3.52116551710000   -0.81351959350000    0.19366025790000
C        -3.19283924550000    0.40983607820000   -0.38990580120000
C        -1.87981047940000    0.81040981670000   -0.52375718300000
C        -0.82546917830000    0.02031223400000   -0.06182748130000
C        -1.15622587120000   -1.20906671950000    0.51470824310000
C        -2.46839022720000   -1.61993360870000    0.62931014690000
S         0.11818248470000   -2.25442553970000    1.16899442120000
C         1.41890481390000   -1.81529370330000    0.04592367470000
C         2.37669331300000   -2.76349044120000   -0.24675464270000
C         3.45615266610000   -2.46208208340000   -1.07828730840000
C         4.50548126380000   -3.41770622670000   -1.39711107520000
C         4.61453038560000   -4.66108590450000   -0.94266443350000
C         3.50661892990000   -1.17952621250000   -1.62385165690000
C         2.53640133040000   -0.23744778640000   -1.34853995660000
C         1.47632892000000   -0.52330852730000   -0.48719764320000
N         0.50189499550000    0.42259420030000   -0.18320756140000
C         0.82220345100000    1.83484805780000   -0.20848930550000
C         0.31965505100000    2.52409051490000    1.06413933270000
C         0.85021096450000    3.95047715220000    1.20735620570000
C         0.40798994260000    4.91852650720000    0.10704612620000
C        -1.10529178620000    5.09373836570000   -0.03037862900000
C        -1.75914034920000    5.66957618350000    1.21986571310000
H        -6.96931250980000   -1.06867750240000    0.21199832510000
H        -5.99544559380000    0.35647519610000   -0.37908432810000
H        -4.96653701250000   -2.27546087110000    0.79508095540000
H        -3.97204574860000    1.05964877900000   -0.75599767000000
H        -1.67001407580000    1.75198168520000   -1.00604172200000
H        -2.67220469110000   -2.57564600040000    1.08941976360000
H         2.28150987990000   -3.73950783730000    0.20120536510000
H         5.26026039710000   -3.04083769220000   -2.07719021390000
H         3.90374518670000   -5.09813981840000   -0.26296377220000
H         5.43317656040000   -5.29408956420000   -1.23894700050000
H         4.31856246440000   -0.91599924500000   -2.28645461240000
H         2.60042468910000    0.73150661740000   -1.81924755580000
H         0.41861100310000    2.32238896460000   -1.10359028770000
H         1.90916302590000    1.92708781810000   -0.23206013920000
H         0.66216811590000    1.93759210570000    1.92050856460000
H        -0.76971086310000    2.52551371850000    1.08918076370000
H         1.94307105540000    3.92101808130000    1.21538629550000
H         0.53108111650000    4.34035984790000    2.17511004590000
H         0.81219733660000    4.58624981640000   -0.85166978080000
H         0.85099190950000    5.89456735250000    0.32104380260000
H        -1.57281319670000    4.13824563400000   -0.27339582600000
H        -1.29230617090000    5.76862688690000   -0.86958523270000
H        -1.69331658130000    4.97378763180000    2.05221873040000
H        -2.81115267210000    5.87422240020000    1.03417813850000
H        -1.27505468850000    6.60031830960000    1.50803028320000
$end

$rem
BASIS = 6-31G*
GUI = 2
METHOD = B3LYP
PRINT_ORBITALS false
MOLDEN_FORMAT false
--------------------------------------------------------------
 ----------------------------------------------------------------
             Standard Nuclear Orientation (Angstroms)
    I     Atom           X                Y                Z
 ----------------------------------------------------------------
    1      C       3.4770518558    -4.8735718389     0.7256200644
    2      C       2.3037388772    -4.5210078340     0.2122328002
    3      C       1.7098608244    -3.1931332022     0.2262722242
    4      C       2.2952236749    -2.0912201348     0.8492365173
    5      C       1.6899082044    -0.8520077895     0.8301054534
    6      C       0.4783425858    -0.6421753382     0.1687826027
    7      C      -0.1108345061    -1.7496090112    -0.4473562267
    8      C       0.4835317006    -2.9942221943    -0.4101093373
    9      S      -1.6268412194    -1.5622989501    -1.3482561711
   10      C      -2.3432578084    -0.2559302992    -0.3858885346
   11      C      -3.7180124312    -0.1861853372    -0.3005549092
   12      C      -4.3435223651     0.8500037539     0.3941216755
   13      C      -5.7887535192     0.9829339198     0.4920659742
   14      C      -6.7002045249     0.1936519035    -0.0653364364
   15      C      -3.5236814412     1.7871543759     1.0224101725
   16      C      -2.1476698137     1.7050362202     0.9554841456
   17      C      -1.5193384304     0.6920952203     0.2298598193
   18      N      -0.1334478051     0.6080499258     0.1354830404
   19      C       0.6781672998     1.8044685471     0.2224372553
   20      C       1.7060292288     1.8418687362    -0.9130339202
   21      C       2.4125735032     3.1931022257    -1.0204710380
   22      C       3.2496971637     3.5840590633     0.2000771934
   23      C       4.3680864501     2.6039405110     0.5580986690
   24      C       5.4110472009     2.4546955394    -0.5428903688
   25      H       3.8306160895    -5.8884354895     0.6654785675
   26      H       4.1306086086    -4.1769087075     1.2218383881
   27      H       1.6996470381    -5.2749060774    -0.2779056106
   28      H       3.2349755002    -2.2002108010     1.3673389382
   29      H       2.1641702144    -0.0335987958     1.3482297203
   30      H      -0.0083394388    -3.8167612474    -0.9082254473
   31      H      -4.2990808076    -0.9425138598    -0.8032125660
   32      H      -6.1197401445     1.8254724021     1.0877217699
   33      H      -6.4425403835    -0.6576596862    -0.6712262606
   34      H      -7.7527749840     0.3763357956     0.0664989775
   35      H      -3.9728761034     2.5934763384     1.5843803590
   36      H      -1.5543191729     2.4349270603     1.4843807798
   37      H       1.1698148982     1.8863428683     1.1988429100
   38      H       0.0155958917     2.6630402571     0.1024429921
   39      H       1.1772903537     1.6499603342    -1.8501946387
   40      H       2.4386997835     1.0451976190    -0.7871125841
   41      H       1.6620613505     3.9715816707    -1.1816441125
   42      H       3.0542329516     3.1762710925    -1.9027350216
   43      H       2.5945266381     3.7018283045     1.0659926600
   44      H       3.6970302396     4.5612725734     0.0009582472
   45      H       3.9477897795     1.6242486655     0.7908100444
   46      H       4.8599094901     2.9688054676     1.4634716754
   47      H       4.9839465373     1.9873589219    -1.4263197839
   48      H       6.2354840226     1.8342501160    -0.1987373788
   49      H       5.8089634172     3.4273766781    -0.8243379465
 ----------------------------------------------------------------
 Molecular Point Group                 C1    NOp =  1
 Largest Abelian Subgroup              C1    NOp =  1
 Nuclear Repulsion Energy =        2107.33671630 hartrees
 There are       90 alpha and       90 beta electrons
 Requested basis set is 6-31G(d)
 There are 147 shells and 414 basis functions

 Total QAlloc Memory Limit   4000 MB
 Mega-Array Size       188 MB
 MEM_STATIC part       192 MB
 A cutoff of  1.0D-08 yielded   4829 shell pairs
 There are     41799 function pairs
 Smallest overlap matrix eigenvalue = 3.34E-04

 Scale SEOQF with 1.000000e-02/1.000000e-02/1.000000e-01

 Standard Electronic Orientation quadrupole field applied
 Nucleus-field energy     =     0.0000000024 hartrees
 Guess from superposition of atomic densities
 Warning:  Energy on first SCF cycle will be non-variational
 SAD guess density has 180.000000 electrons

 -----------------------------------------------------------------------
  General SCF calculation program by
  Eric Jon Sundstrom, Paul Horn, Yuezhi Mao, Dmitri Zuev, Alec White,
  David Stuck, Shaama M.S., Shane Yost, Joonho Lee, David Small,
  Daniel Levine, Susi Lehtola, Hugh Burton, Evgeny Epifanovsky,
  Bang C. Huynh
 -----------------------------------------------------------------------
 Exchange:     0.2000 Hartree-Fock + 0.0800 Slater + 0.7200 B88
 Correlation:  0.1900 VWN1RPA + 0.8100 LYP
 Using SG-1 standard quadrature grid
 A restricted SCF calculation will be
 performed using DIIS
 SCF converges when DIIS error is below 1.0e-05
 ---------------------------------------
  Cycle       Energy         DIIS error
 ---------------------------------------
    1   -1312.1017500363      3.99e-02  
    2   -1305.9150446737      4.06e-03  
    3   -1305.7844785667      4.72e-03  
    4   -1306.2571894546      1.42e-03  
    5   -1306.3018263124      4.08e-04  
    6   -1306.3054196978      1.15e-04  
    7   -1306.3057016301      4.81e-05  
    8   -1306.3057537819      1.61e-05  
    9   -1306.3057595955      3.20e-06  Convergence criterion met
 ---------------------------------------
 SCF time:   CPU 140.93s  wall 141.00s 
 SCF   energy in the final basis set =    -1306.3057595955
 Total energy in the final basis set =    -1306.3057595955
 
 --------------------------------------------------------------
 
                    Orbital Energies (a.u.)
 --------------------------------------------------------------
 
 Alpha MOs
 -- Occupied --
-88.8858 -14.3672 -10.2345 -10.2340 -10.2258 -10.2173 -10.2168 -10.1920
-10.1908 -10.1908 -10.1906 -10.1895 -10.1890 -10.1883 -10.1878 -10.1875
-10.1868 -10.1829 -10.1822 -10.1816 -10.1806 -10.1760 -10.1748 -10.1727
 -7.9468  -5.9118  -5.9083  -5.9017  -0.9790  -0.8700  -0.8663  -0.8203
 -0.8105  -0.7972  -0.7768  -0.7679  -0.7567  -0.7340  -0.7263  -0.7105
 -0.6816  -0.6656  -0.6419  -0.6224  -0.6114  -0.5971  -0.5919  -0.5653
 -0.5561  -0.5438  -0.5354  -0.5185  -0.4942  -0.4837  -0.4797  -0.4699
 -0.4651  -0.4575  -0.4493  -0.4438  -0.4358  -0.4281  -0.4253  -0.4155
 -0.4136  -0.4080  -0.4053  -0.3944  -0.3902  -0.3865  -0.3782  -0.3729
 -0.3653  -0.3596  -0.3537  -0.3519  -0.3467  -0.3397  -0.3365  -0.3272
 -0.3205  -0.3196  -0.3143  -0.3006  -0.2970  -0.2620  -0.2585  -0.2234
 -0.2177  -0.1774
 -- Virtual --
 -0.0344  -0.0207  -0.0031  -0.0016   0.0342   0.0610   0.0639   0.0691
  0.0885   0.0978   0.1032   0.1114   0.1175   0.1201   0.1238   0.1253
  0.1391   0.1411   0.1451   0.1544   0.1561   0.1628   0.1710   0.1752
  0.1770   0.1795   0.1804   0.1944   0.2020   0.2047   0.2100   0.2128
  0.2168   0.2215   0.2242   0.2324   0.2354   0.2394   0.2453   0.2615
  0.2628   0.2726   0.2870   0.2873   0.2977   0.3071   0.3094   0.3200
  0.3274   0.3449   0.3558   0.3609   0.3685   0.3748   0.3936   0.4083
  0.4208   0.4412   0.4465   0.4563   0.4866   0.5006   0.5049   0.5084
  0.5135   0.5171   0.5227   0.5289   0.5338   0.5410   0.5471   0.5547
  0.5595   0.5654   0.5677   0.5766   0.5829   0.5866   0.5928   0.5954
  0.6000   0.6028   0.6042   0.6055   0.6105   0.6145   0.6181   0.6274
  0.6349   0.6374   0.6425   0.6476   0.6523   0.6613   0.6774   0.6802
  0.6873   0.6917   0.6997   0.7034   0.7107   0.7109   0.7251   0.7352
  0.7403   0.7666   0.7729   0.7905   0.7997   0.8089   0.8280   0.8301
  0.8346   0.8411   0.8457   0.8543   0.8593   0.8655   0.8677   0.8732
  0.8789   0.8866   0.8904   0.8925   0.8932   0.8962   0.9012   0.9118
  0.9131   0.9256   0.9390   0.9406   0.9472   0.9516   0.9626   0.9637
  0.9710   0.9752   0.9799   0.9849   0.9875   1.0023   1.0049   1.0080
  1.0158   1.0194   1.0326   1.0348   1.0433   1.0555   1.0650   1.0800
  1.0893   1.1007   1.1183   1.1198   1.1320   1.1497   1.1529   1.1699
  1.1888   1.1973   1.2054   1.2329   1.2484   1.2586   1.2653   1.2791
  1.2975   1.3217   1.3242   1.3382   1.3489   1.3577   1.3610   1.3903
  1.4121   1.4146   1.4453   1.4519   1.4574   1.4651   1.4731   1.4779
  1.4860   1.5016   1.5093   1.5174   1.5184   1.5218   1.5294   1.5593
  1.5862   1.5997   1.6195   1.6272   1.6532   1.6759   1.6795   1.6816
  1.6856   1.7164   1.7499   1.7742   1.7777   1.7918   1.8004   1.8058
  1.8121   1.8274   1.8584   1.8700   1.8771   1.8981   1.9039   1.9078
  1.9197   1.9249   1.9427   1.9555   1.9701   1.9807   1.9847   1.9929
  1.9967   2.0040   2.0159   2.0211   2.0275   2.0438   2.0543   2.0680
  2.0742   2.0836   2.0995   2.1143   2.1345   2.1389   2.1432   2.1542
  2.1620   2.1710   2.1813   2.1993   2.2142   2.2389   2.2439   2.2506
  2.2550   2.2657   2.2928   2.2961   2.3139   2.3212   2.3238   2.3304
  2.3384   2.3577   2.3759   2.3918   2.4042   2.4088   2.4331   2.4444
  2.4668   2.5136   2.5175   2.5270   2.5422   2.5528   2.5705   2.5815
  2.6125   2.6199   2.6304   2.6320   2.6575   2.6688   2.6811   2.6832
  2.6909   2.7145   2.7302   2.7401   2.7600   2.7888   2.8092   2.8261
  2.8655   2.8801   2.9103   2.9205   2.9745   2.9899   3.0788   3.1225
  3.2104   3.2797   3.4251   3.4591   3.9817   4.0927   4.0960   4.1118
  4.1214   4.1310   4.1481   4.1502   4.1611   4.1754   4.2015   4.2534
  4.2732   4.2887   4.3367   4.3546   4.3738   4.4487   4.4744   4.4987
  4.5230   4.5734   4.7496   4.7890
 --------------------------------------------------------------
 
          Ground-State Mulliken Net Atomic Charges

     Atom                 Charge (a.u.)
  ----------------------------------------
      1 C                    -0.357247
      2 C                    -0.113533
      3 C                     0.199408
      4 C                    -0.206317
      5 C                    -0.167150
      6 C                     0.317377
      7 C                    -0.112688
      8 C                    -0.261897
      9 S                     0.159852
     10 C                    -0.110445
     11 C                    -0.247116
     12 C                     0.200209
     13 C                    -0.116961
     14 C                    -0.355955
     15 C                    -0.216265
     16 C                    -0.167078
     17 C                     0.313797
     18 N                    -0.585356
     19 C                    -0.154912
     20 C                    -0.276320
     21 C                    -0.268353
     22 C                    -0.257679
     23 C                    -0.260082
     24 C                    -0.445103
     25 H                     0.142838
     26 H                     0.139189
     27 H                     0.127222
     28 H                     0.127549
     29 H                     0.138332
     30 H                     0.141838
     31 H                     0.141124
     32 H                     0.124305
     33 H                     0.142058
     34 H                     0.142134
     35 H                     0.128046
     36 H                     0.134402
     37 H                     0.147752
     38 H                     0.159823
     39 H                     0.153271
     40 H                     0.158569
     41 H                     0.130533
     42 H                     0.141545
     43 H                     0.129109
     44 H                     0.131656
     45 H                     0.135254
     46 H                     0.133780
     47 H                     0.150579
     48 H                     0.145081
     49 H                     0.143827
  ----------------------------------------
  Sum of atomic charges =     0.000000

 -----------------------------------------------------------------
                    Cartesian Multipole Moments
 -----------------------------------------------------------------
    Charge (ESU x 10^10)
                 0.0000
    Dipole Moment (Debye)
         X       1.5033      Y       1.9350      Z       0.9459
       Tot       2.6266
    Quadrupole Moments (Debye-Ang)
        XX    -144.2974     XY      -0.3167     YY    -142.8116
        XZ       1.4969     YZ       4.3314     ZZ    -153.8013
    Octopole Moments (Debye-Ang^2)
       XXX     -13.6983    XXY       7.6633    XYY       9.8202
       YYY      -7.8440    XXZ      14.1560    XYZ     -19.4176
       YYZ      -3.1849    XZZ       8.4254    YZZ      12.2414
       ZZZ      -1.3581
    Hexadecapole Moments (Debye-Ang^3)
      XXXX   -8945.0975   XXXY     -23.2244   XXYY   -2335.2440
      XYYY     -49.1178   YYYY   -4891.8664   XXXZ      57.9640
      XXYZ      45.2105   XYYZ     -15.9311   YYYZ      68.4346
      XXZZ   -1695.9370   XYZZ       8.0650   YYZZ    -984.9823
      XZZZ      -0.2292   YZZZ      14.3579   ZZZZ    -691.9793
 -----------------------------------------------------------------
Archival summary:
1\1\nia1977.scinet.local\SP\ProcedureUnspecified\6-31G*\112225\rhickman\MonFeb713:06:312022MonFeb713:06:312022\0\\#,ProcedureUnspecified,6-31G*,\\0,1\S\C,1,1.77341\C,2,1.37975,1,118.505\H,3,1.08011,2,118.576,1,-1.62039,0\C,3,1.39586,2,121.286,1,176.842,0\C,5,1.39461,3,117.375,2,1.44565,0\H,6,1.07863,5,120.027,3,179.018,0\C,6,1.37928,5,121.297,3,-0.384886,0\H,8,1.0785,6,118.824,5,178.308,0\C,8,1.39616,6,121.496,5,-1.07605,0\N,10,1.39229,8,121.844,6,-179.459,0\C,11,1.39164,10,119.354,8,-141.882,0\C,12,1.39549,11,121.837,10,141.392,0\H,13,1.07914,12,119.883,11,-1.64684,0\C,13,1.38008,12,121.154,11,178.973,0\H,15,1.08062,13,118.952,12,-179.243,0\C,15,1.39468,13,121.619,12,1.35471,0\C,17,1.39554,15,117.367,13,0.481136,0\H,18,1.07812,17,120.757,15,179.774,0\C,18,1.37917,17,121.007,15,-1.55356,0\C,11,1.44834,10,119.611,8,28.1388,0\H,21,1.09112,11,107.645,10,175.796,0\H,21,1.09626,11,111.499,10,-65.7385,0\C,17,1.45463,15,119.492,13,-179.851,0\H,24,1.08362,17,114.301,15,-1.19055,0\C,24,1.32831,17,126.811,15,178.683,0\H,26,1.07621,24,122.819,17,-0.0787972,0\H,26,1.07641,24,121.248,17,-179.98,0\C,5,1.4547,3,118.969,2,-178.792,0\H,29,1.08329,5,114.329,3,-2.28194,0\C,29,1.32836,5,126.809,3,177.57,0\H,31,1.07637,29,121.251,5,179.909,0\H,31,1.07643,29,122.866,5,-0.140847,0\C,21,1.53206,11,110.587,10,58.1986,0\H,34,1.08965,21,110.341,11,-67.0365,0\H,34,1.09301,21,107.856,11,49.7761,0\C,34,1.52859,21,112.568,11,169.532,0\H,37,1.09105,34,108.363,21,-174.658,0\H,37,1.09329,34,108.814,21,-58.4252,0\C,37,1.5308,34,114.992,21,63.0017,0\H,40,1.09221,37,109.368,34,-63.7805,0\H,40,1.09302,37,107.872,34,-179.901,0\C,40,1.52958,37,115.013,34,58.9575,0\H,43,1.09115,40,110.097,37,-60.8003,0\H,43,1.09303,40,107.998,37,-177.589,0\C,43,1.52388,40,113.208,37,61.8123,0\H,46,1.08686,43,111.126,40,-66.337,0\H,46,1.0877,43,110.244,40,173.898,0\H,46,1.08796,43,110.467,40,54.1907,0\\\@

 Total job time:  141.74s(wall), 141.37s(cpu) 
 Mon Feb  7 13:06:31 2022

        *************************************************************
        *                                                           *
        *  Thank you very much for using Q-Chem.  Have a nice day.  *
        *                                                           *
        *************************************************************


