
Running Job 1 of 1 tidas/B033/conf-6/spe_input.inp
qchem tidas/B033/conf-6/spe_input.inp_246509.0 /home/a/aspuru/seifridm/acdc_laser/descriptor_computation/qchem246509/ 0
/gpfs/fs1/scinet/niagara/software/commercial/qc54/exe/qcprog.exe_s tidas/B033/conf-6/spe_input.inp_246509.0 /home/a/aspuru/seifridm/acdc_laser/descriptor_computation/qchem246509/
                  Welcome to Q-Chem
     A Quantum Leap Into The Future Of Chemistry


 Q-Chem 5.4, Q-Chem, Inc., Pleasanton, CA (2021)

 License issued to: SRG Alan Aspuru-Guzik, University of Toronto

 E. Epifanovsky,  A. T. B. Gilbert,  Xintian Feng,  Joonho Lee,  Yuezhi Mao,  
 N. Mardirossian,  P. Pokhilko,  A. White,  M. Wormit,  M. P. Coons,  
 A. L. Dempwolff,  Zhengting Gan,  D. Hait,  P. R. Horn,  L. D. Jacobson,  
 I. Kaliman,  J. Kussmann,  A. W. Lange,  Ka Un Lao,  D. S. Levine,  Jie Liu,  
 S. C. McKenzie,  A. F. Morrison,  K. Nanda,  F. Plasser,  D. R. Rehn,  
 M. L. Vidal,  Zhi-Qiang You,  Ying Zhu,  B. Alam,  B. Albrecht,  
 A. Aldossary,  E. Alguire,  J. H. Andersen,  D. Barton,  K. Begam,  A. Behn,  
 Y. A. Bernard,  E. J. Berquist,  H. Burton,  A. Carreras,  K. Carter-Fenk,  
 Romit Chakraborty,  A. D. Chien,  K. D. Closser,  V. Cofer-Shabica,  
 S. Dasgupta,  Jia Deng,  M. de Wergifosse,  M. Diedenhofen,  Hainam Do,  
 S. Ehlert,  Po-Tung Fang,  S. Fatehi,  Qingguo Feng,  T. Friedhoff,  
 J. Gayvert,  Qinghui Ge,  G. Gidofalvi,  M. Goldey,  J. Gomes,  
 C. Gonzalez-Espinoza,  S. Gulania,  A. Gunina,  M. W. D. Hanson-Heine,  
 P. H. P. Harbach,  A. W. Hauser,  M. F. Herbst,  M. Hernandez Vera,  
 M. Hodecker,  Z. C. Holden,  S. Houck,  Xunkun Huang,  Kerwin Hui,  
 B. C. Huynh,  M. Ivanov,  Hyunjun Ji,  Hanjie Jiang,  B. Kaduk,  S. Kaehler,  
 K. Khistyaev,  Jaehoon Kim,  P. Klunzinger,  Z. Koczor-Benda,  
 Joong Hoon Koh,  D. Kosenkov,  L. Koulias,  T. Kowalczyk,  C. M. Krauter,  
 K. Kue,  A. Kunitsa,  T. Kus,  A. Landau,  K. V. Lawler,  D. Lefrancois,  
 S. Lehtola,  Rain Li,  Yi-Pei Li,  Jiashu Liang,  M. Liebenthal,  
 Hung-Hsuan Lin,  You-Sheng Lin,  Fenglai Liu,  Kuan-Yu Liu,  
 M. Loipersberger,  A. Luenser,  A. Manjanath,  P. Manohar,  E. Mansoor,  
 S. F. Manzer,  Shan-Ping Mao,  A. V. Marenich,  T. Markovich,  S. Mason,  
 S. A. Maurer,  P. F. McLaughlin,  M. F. S. J. Menger,  J.-M. Mewes,  
 S. A. Mewes,  P. Morgante,  J. W. Mullinax,  K. J. Oosterbaan,  G. Paran,  
 Alexander C. Paul,  Suranjan K. Paul,  F. Pavosevic,  Zheng Pei,  S. Prager,  
 E. I. Proynov,  E. Ramos,  B. Rana,  A. E. Rask,  A. Rettig,  R. M. Richard,  
 F. Rob,  E. Rossomme,  T. Scheele,  M. Scheurer,  M. Schneider,  
 N. Sergueev,  S. M. Sharada,  W. Skomorowski,  D. W. Small,  C. J. Stein,  
 Yu-Chuan Su,  E. J. Sundstrom,  Zhen Tao,  J. Thirman,  T. Tsuchimochi,  
 N. M. Tubman,  S. P. Veccham,  O. Vydrov,  J. Wenzel,  J. Witte,  A. Yamada,  
 Kun Yao,  S. Yeganeh,  S. R. Yost,  A. Zech,  Igor Ying Zhang,  Xing Zhang,  
 Yu Zhang,  D. Zuev,  A. Aspuru-Guzik,  A. T. Bell,  N. A. Besley,  
 K. B. Bravaya,  B. R. Brooks,  D. Casanova,  Jeng-Da Chai,  S. Coriani,  
 C. J. Cramer,  A. E. DePrince, III,  R. A. DiStasio Jr.,  A. Dreuw,  
 B. D. Dunietz,  T. R. Furlani,  W. A. Goddard III,  S. Grimme,  
 S. Hammes-Schiffer,  T. Head-Gordon,  W. J. Hehre,  Chao-Ping Hsu,  
 T.-C. Jagau,  Yousung Jung,  A. Klamt,  Jing Kong,  D. S. Lambrecht,  
 WanZhen Liang,  N. J. Mayhall,  C. W. McCurdy,  J. B. Neaton,  T. Neudecker,  
 C. Ochsenfeld,  J. A. Parkhill,  R. Peverati,  V. A. Rassolov,  Yihan Shao,  
 L. V. Slipchenko,  R. P. Steele,  J. E. Subotnik,  A. J. W. Thom,  
 A. Tkatchenko,  D. G. Truhlar,  T. Van Voorhis,  T. A. Wesolowski,  
 K. B. Whaley,  H. L. Woodcock III,  P. M. Zimmerman,  S. Faraji,  
 P. M. W. Gill,  M. Head-Gordon,  J. M. Herbert,  A. I. Krylov

 Additional authors since Version 5.4.0: 
 Chandrima Chakravarty,  L. Cunha,  R. Kang,  Yongbin Kim,  S. Kotaru,  
 Shaozhi Li,  Xiangyuan Li,  F. Matz,  A. Molle,  V. Parravicini,  
 Haisheng Ren,  Hengyuan Shen,  Yingli Su,  Hung-Yi Tsai,  C. Utku,  
 Fang Wang,  Jeff Yang,  F. Zeller

 Contributors to earlier versions of Q-Chem not listed above: 
 R. D. Adamson,  B. Austin,  R. Baer,  J. Baker,  G. J. O. Beran,  
 K. Brandhorst,  S. T. Brown,  E. F. C. Byrd,  Arup K. Chakraborty,  
 G. K. L. Chan,  Chun-Min Chang,  Yunqing Chen,  C.-L. Cheng,  
 Siu Hung Chien,  D. M. Chipman,  D. L. Crittenden,  H. Dachsel,  
 R. J. Doerksen,  A. D. Dutoi,  R. G. Edgar,  J. Fosso-Tande,  
 L. Fusti-Molnar,  D. Ghosh,  A. Ghysels,  A. Golubeva-Zadorozhnaya,  
 J. Gonthier,  M. S. Gordon,  S. R. Gwaltney,  G. Hawkins,  J. E. Herr,  
 A. Heyden,  S. Hirata,  E. G. Hohenstein,  G. Kedziora,  F. J. Keil,  
 C. Kelley,  Jihan Kim,  R. A. King,  R. Z. Khaliullin,  P. P. Korambath,  
 W. Kurlancheek,  A. Laurent,  A. M. Lee,  M. S. Lee,  S. V. Levchenko,  
 Ching Yeh Lin,  D. Liotard,  E. Livshits,  R. C. Lochan,  I. Lotan,  
 L. A. Martinez-Martinez,  P. E. Maslen,  N. Nair,  D. P. O'Neill,  
 D. Neuhauser,  E. Neuscamman,  C. M. Oana,  R. Olivares-Amaya,  R. Olson,  
 T. M. Perrine,  B. Peters,  P. A. Pieniazek,  A. Prociuk,  Y. M. Rhee,  
 J. Ritchie,  M. A. Rohrdanz,  E. Rosta,  N. J. Russ,  H. F. Schaefer III,  
 M. W. Schmidt,  N. E. Schultz,  S. Sharma,  N. Shenvi,  C. D. Sherrill,  
 A. C. Simmonett,  A. Sodt,  T. Stein,  D. Stuck,  K. S. Thanthiriwatte,  
 V. Vanovschi,  L. Vogt,  Tao Wang,  A. Warshel,  M. A. Watson,  
 C. F. Williams,  Q. Wu,  X. Xu,  Jun Yang,  W. Zhang,  Yan Zhao

   Please cite Q-Chem as follows:
  "Software for the frontiers of quantum chemistry:
   An overview of developments in the Q-Chem 5 package"
   J. Chem. Phys. 155, 084801 (2021)
   https://doi.org/10.1063/5.0055522 (open access)

 Q-Chem 5.4.2 for Intel X86 EM64T Linux

 Parts of Q-Chem use Armadillo 9.900.5 (Nocturnal Misbehaviour).
 http://arma.sourceforge.net/

 Q-Chem begins on Fri Aug 12 12:44:28 2022  

 Host: 
0

     Scratch files written to /home/a/aspuru/seifridm/acdc_laser/descriptor_computation/qchem246509//
 Dec1321 |scratch|qcdevops|jenkins|workspace|build_RNUM 6959   
 Processing $rem in /gpfs/fs1/scinet/niagara/software/commercial/qc54/config/preferences:
 Processing $rem in /home/a/aspuru/seifridm/.qchemrc:

 Checking the input file for inconsistencies... 	...done.

--------------------------------------------------------------
User input:
--------------------------------------------------------------
$molecule
0 1
C           -2.57307658050000       -1.99816667150000        1.34300008350000
C           -2.73142692750000       -0.94497971430000        0.55262088140000
C           -1.67062610300000       -0.01063772330000        0.17191659450000
C           -2.01524366120000        1.32462348250000       -0.02632370150000
C           -1.04841216450000        2.26275967880000       -0.33724096110000
Cl          -1.50499945170000        3.91117161330000       -0.58434473290000
C            0.27989176560000        1.89877093840000       -0.45141467350000
C            0.64798420610000        0.56919090320000       -0.26479485810000
C            2.05585700920000        0.20101438010000       -0.40831433220000
C            2.71259651980000       -0.65234673870000        0.36026622470000
F            2.28015940670000       -1.27673246530000        1.43942486600000
F            3.99560334480000       -0.95926162760000        0.16613466890000
C           -0.32856828990000       -0.39539876210000        0.02145067000000
O            0.06322984160000       -1.70712773120000        0.11863722800000
C           -0.28420397000000       -2.51817480080000       -0.99646920390000
C            0.10970043070000       -3.94922754150000       -0.67577492030000
H           -3.40549243090000       -2.62671510770000        1.61121635960000
H           -1.61259726060000       -2.26046765600000        1.75167945030000
H           -3.71735424170000       -0.68486275210000        0.18652736020000
H           -3.04541062320000        1.62870531830000        0.07836949930000
H            1.03061706920000        2.63845353420000       -0.68023420940000
H            2.61817805290000        0.67508048020000       -1.19865510080000
H            0.25619455590000       -2.15985582650000       -1.88602078940000
H           -1.36160843820000       -2.44855921760000       -1.19656614270000
H            1.16819318310000       -3.99571125510000       -0.43573745760000
H           -0.09284969530000       -4.58833873710000       -1.53037733820000
H           -0.45450975370000       -4.30673808680000        0.18078586530000
$end

$rem
BASIS = 6-31G*
GUI = 2
METHOD = B3LYP
PRINT_ORBITALS false
MOLDEN_FORMAT false
$end
--------------------------------------------------------------
 ----------------------------------------------------------------
             Standard Nuclear Orientation (Angstroms)
    I     Atom           X                Y                Z
 ----------------------------------------------------------------
    1      C       0.4720452458    -3.2181994843     1.1367762878
    2      C      -0.5761978183    -2.7775091137     0.4541670598
    3      C      -0.8706466040    -1.3701747263     0.1785968615
    4      C      -2.2071546310    -0.9825662400     0.1115974648
    5      C      -2.5468454683     0.3416116913    -0.0950305816
    6      Cl     -4.2127913795     0.7934212764    -0.1803912893
    7      C      -1.5700278313     1.3094931557    -0.2326806646
    8      C      -0.2274313899     0.9456582612    -0.1764575806
    9      C       0.7909541588     1.9817166071    -0.3429856545
   10      C       1.9188198093     2.0724856580     0.3425273725
   11      F       2.3230013641     1.3218703992     1.3498290996
   12      F       2.8171821537     3.0347875755     0.1306065367
   13      C       0.1280135777    -0.3987813926     0.0028895537
   14      O       1.4600377660    -0.7279463889    -0.0278652531
   15      C       1.8887810895    -1.3706837798    -1.2216147100
   16      C       3.3424457147    -1.7712801902    -1.0418951491
   17      H       0.6108473616    -4.2680179010     1.3331038713
   18      H       1.2176079863    -2.5466991225     1.5260892973
   19      H      -1.3293283807    -3.4745370876     0.1067705591
   20      H      -2.9821053510    -1.7231725410     0.2365938136
   21      H      -1.8424064829     2.3426157264    -0.3794622306
   22      H       0.6051448832     2.7515571937    -1.0767448373
   23      H       1.7830720572    -0.6722494475    -2.0658541082
   24      H       1.2661970014    -2.2522848495    -1.4237387053
   25      H       3.9388435108    -0.8966604150    -0.7978960841
   26      H       3.7183971087    -2.2177955320    -1.9579298458
   27      H       3.4326948493    -2.4878910636    -0.2306200716
 ----------------------------------------------------------------
 Molecular Point Group                 C1    NOp =  1
 Largest Abelian Subgroup              C1    NOp =  1
 Nuclear Repulsion Energy =        1203.59820485 hartrees
 There are       63 alpha and       63 beta electrons
 Requested basis set is 6-31G(d)
 There are 87 shells and 266 basis functions

 Total QAlloc Memory Limit   8000 MB
 Mega-Array Size       188 MB
 MEM_STATIC part       192 MB
 A cutoff of  1.0D-08 yielded   2445 shell pairs
 There are     24311 function pairs
 Smallest overlap matrix eigenvalue = 3.07E-04

 Scale SEOQF with 1.000000e-01/1.000000e-01/1.000000e-01

 Standard Electronic Orientation quadrupole field applied
 Nucleus-field energy     =     0.0000000478 hartrees
 Guess from superposition of atomic densities
 Warning:  Energy on first SCF cycle will be non-variational
 SAD guess density has 126.000000 electrons

 -----------------------------------------------------------------------
  General SCF calculation program by
  Eric Jon Sundstrom, Paul Horn, Yuezhi Mao, Dmitri Zuev, Alec White,
  David Stuck, Shaama M.S., Shane Yost, Joonho Lee, David Small,
  Daniel Levine, Susi Lehtola, Hugh Burton, Evgeny Epifanovsky,
  Bang C. Huynh
 -----------------------------------------------------------------------
 Exchange:     0.2000 Hartree-Fock + 0.0800 Slater + 0.7200 B88
 Correlation:  0.1900 VWN1RPA + 0.8100 LYP
 Using SG-1 standard quadrature grid
 A restricted SCF calculation will be
 performed using DIIS
 SCF converges when DIIS error is below 1.0e-05
 ---------------------------------------
  Cycle       Energy         DIIS error
 ---------------------------------------
    1   -1202.4190386927      4.80e-02  
    2   -1198.7046134126      5.19e-03  
    3   -1198.5608758771      6.62e-03  
    4   -1198.9250667316      1.23e-03  
    5   -1198.9375376626      4.26e-04  
    6   -1198.9389167646      1.81e-04  
    7   -1198.9391993301      4.47e-05  
    8   -1198.9392150723      1.59e-05  
    9   -1198.9392178570      5.49e-06  Convergence criterion met
 ---------------------------------------
 SCF time:   CPU 68.69s  wall 72.00s 
 SCF   energy in the final basis set =    -1198.9392178570
 Total energy in the final basis set =    -1198.9392178570
 
 --------------------------------------------------------------
 
                    Orbital Energies (a.u.)
 --------------------------------------------------------------
 
 Alpha MOs
 -- Occupied --
******** -24.7367 -24.7325 -19.1672 -10.3572 -10.2510 -10.2499 -10.2391
-10.2144 -10.2092 -10.2030 -10.2023 -10.2021 -10.1982 -10.1849 -10.1802
 -9.4661  -7.2298  -7.2204  -7.2201  -1.2825  -1.2210  -1.0618  -0.9005
 -0.8518  -0.8214  -0.7806  -0.7712  -0.7415  -0.7146  -0.6496  -0.6427
 -0.6205  -0.6035  -0.5734  -0.5623  -0.5411  -0.5210  -0.5163  -0.4934
 -0.4843  -0.4682  -0.4667  -0.4432  -0.4391  -0.4387  -0.4321  -0.4271
 -0.4115  -0.4024  -0.3975  -0.3904  -0.3845  -0.3749  -0.3586  -0.3469
 -0.3341  -0.3147  -0.3072  -0.2783  -0.2712  -0.2321  -0.2273
 -- Virtual --
 -0.0389  -0.0236   0.0289   0.0395   0.0560   0.1015   0.1083   0.1166
  0.1245   0.1363   0.1465   0.1504   0.1643   0.1649   0.1703   0.1749
  0.1815   0.1937   0.1997   0.2102   0.2377   0.2413   0.2791   0.2924
  0.3107   0.3184   0.3451   0.3725   0.3949   0.4020   0.4082   0.4314
  0.4417   0.4481   0.4803   0.4869   0.4918   0.5093   0.5138   0.5241
  0.5309   0.5417   0.5509   0.5616   0.5640   0.5716   0.5799   0.5900
  0.5913   0.6046   0.6170   0.6201   0.6306   0.6503   0.6547   0.6780
  0.6868   0.6910   0.7179   0.7291   0.7689   0.7786   0.7885   0.8066
  0.8246   0.8331   0.8422   0.8473   0.8555   0.8626   0.8729   0.8785
  0.8939   0.9005   0.9046   0.9186   0.9252   0.9345   0.9466   0.9602
  0.9764   0.9803   1.0045   1.0079   1.0137   1.0278   1.0554   1.0934
  1.0972   1.1143   1.1181   1.1247   1.1601   1.1710   1.1956   1.2193
  1.2235   1.2483   1.2595   1.2783   1.3028   1.3413   1.3517   1.3698
  1.3776   1.4040   1.4173   1.4210   1.4474   1.4605   1.4656   1.4902
  1.4981   1.5147   1.5388   1.5491   1.5534   1.6002   1.6443   1.6651
  1.6864   1.7027   1.7361   1.7682   1.7841   1.7935   1.8189   1.8244
  1.8391   1.8559   1.8705   1.8744   1.9132   1.9349   1.9443   1.9590
  1.9680   1.9795   1.9896   1.9947   2.0037   2.0315   2.0433   2.0774
  2.0909   2.0942   2.1284   2.1446   2.1589   2.1726   2.1786   2.2216
  2.2326   2.2460   2.2564   2.2827   2.3005   2.3174   2.3345   2.3532
  2.3687   2.4200   2.4332   2.4473   2.5086   2.5247   2.5463   2.5652
  2.6097   2.6222   2.6458   2.6783   2.6843   2.7133   2.7710   2.7851
  2.8376   2.8738   2.8925   2.9167   2.9684   3.0154   3.0934   3.1289
  3.1846   3.3067   3.4412   4.0654   4.0761   4.1097   4.1138   4.1528
  4.1812   4.2329   4.2451   4.2841   4.3816   4.4393   4.4689   4.5118
  4.7575   4.9098   5.2984
 --------------------------------------------------------------
 
          Ground-State Mulliken Net Atomic Charges

     Atom                 Charge (a.u.)
  ----------------------------------------
      1 C                    -0.331381
      2 C                    -0.147571
      3 C                     0.165174
      4 C                    -0.210982
      5 C                    -0.060120
      6 Cl                   -0.016504
      7 C                    -0.202931
      8 C                     0.151061
      9 C                    -0.329967
     10 C                     0.580397
     11 F                    -0.222764
     12 F                    -0.250657
     13 C                     0.229528
     14 O                    -0.540631
     15 C                    -0.029596
     16 C                    -0.459162
     17 H                     0.143301
     18 H                     0.172936
     19 H                     0.136698
     20 H                     0.151176
     21 H                     0.152805
     22 H                     0.168861
     23 H                     0.133742
     24 H                     0.142870
     25 H                     0.162782
     26 H                     0.149948
     27 H                     0.160986
  ----------------------------------------
  Sum of atomic charges =     0.000000

 -----------------------------------------------------------------
                    Cartesian Multipole Moments
 -----------------------------------------------------------------
    Charge (ESU x 10^10)
                 0.0000
    Dipole Moment (Debye)
         X       0.9496      Y      -1.3654      Z      -1.3460
       Tot       2.1396
    Quadrupole Moments (Debye-Ang)
        XX    -103.4276     XY      -1.2501     YY     -90.1363
        XZ      -2.4304     YZ      -0.9973     ZZ     -97.8615
    Octopole Moments (Debye-Ang^2)
       XXX      55.0308    XXY     -10.6342    XYY       2.3252
       YYY      15.6267    XXZ      -1.2016    XYZ       0.5272
       YYZ       1.0206    XZZ      18.8549    YZZ      11.0085
       ZZZ       6.6976
    Hexadecapole Moments (Debye-Ang^3)
      XXXX   -3281.3251   XXXY      64.5946   XXYY    -850.6700
      XYYY      43.8891   YYYY   -1826.6189   XXXZ       8.7558
      XXYZ       7.4395   XYYZ      15.5704   YYYZ     -11.6918
      XXZZ    -597.8289   XYZZ      12.2172   YYZZ    -372.4648
      XZZZ      25.3081   YZZZ      24.9772   ZZZZ    -357.3425
 -----------------------------------------------------------------
 Total job time:  72.90s(wall), 69.17s(cpu) 
 Fri Aug 12 12:45:41 2022

        *************************************************************
        *                                                           *
        *  Thank you very much for using Q-Chem.  Have a nice day.  *
        *                                                           *
        *************************************************************


