
Running Job 1 of 1 fragments/A030/conf-0/spe_input.inp
qchem fragments/A030/conf-0/spe_input.inp_90015.0 /gpfs/fs0/scratch/a/aspuru/rhickman/descriptor_computation/qchem90015/ 0
/scinet/niagara/software/commercial/qc52/exe/qcprog.exe_s fragments/A030/conf-0/spe_input.inp_90015.0 /gpfs/fs0/scratch/a/aspuru/rhickman/descriptor_computation/qchem90015/
                  Welcome to Q-Chem
     A Quantum Leap Into The Future Of Chemistry


 Q-Chem 5.2, Q-Chem, Inc., Pleasanton, CA (2019)

 License issued to: SRG Alan Aspuru-Guzik, University of Toronto

 Yihan Shao,  Zhengting Gan,  E. Epifanovsky,  A. T. B. Gilbert,  M. Wormit,  
 J. Kussmann,  A. W. Lange,  A. Behn,  Jia Deng,  Xintian Feng,  D. Ghosh,  
 M. Goldey,  P. R. Horn,  L. D. Jacobson,  I. Kaliman,  T. Kus,  A. Landau,  
 Jie Liu,  E. I. Proynov,  R. M. Richard,  R. P. Steele,  E. J. Sundstrom,  
 H. L. Woodcock III,  P. M. Zimmerman,  D. Zuev,  B. Albrecht,  E. Alguire,  
 S. A. Baeppler,  D. Barton,  Z. Benda,  Y. A. Bernard,  E. J. Berquist,  
 K. B. Bravaya,  H. Burton,  D. Casanova,  Chun-Min Chang,  Yunqing Chen,  
 A. Chien,  K. D. Closser,  M. P. Coons,  S. Coriani,  S. Dasgupta,  
 A. L. Dempwolff,  M. Diedenhofen,  Hainam Do,  R. G. Edgar,  Po-Tung Fang,  
 S. Faraji,  S. Fatehi,  Qingguo Feng,  K. D. Fenk,  J. Fosso-Tande,  
 J. Gayvert,  Qinghui Ge,  A. Ghysels,  G. Gidofalvi,  J. Gomes,  
 J. Gonthier,  A. Gunina,  D. Hait,  M. W. D. Hanson-Heine,  
 P. H. P. Harbach,  A. W. Hauser,  M. F. Herbst,  J. E. Herr,  
 E. G. Hohenstein,  Z. C. Holden,  Kerwin Hui,  B. C. Huynh,  T.-C. Jagau,  
 Hyunjun Ji,  B. Kaduk,  K. Khistyaev,  Jaehoon Kim,  P. Klunzinger,  K. Koh,  
 D. Kosenkov,  L. Koulias,  T. Kowalczyk,  C. M. Krauter,  A. Kunitsa,  
 Ka Un Lao,  A. Laurent,  K. V. Lawler,  Joonho Lee,  D. Lefrancois,  
 S. Lehtola,  D. S. Levine,  Yi-Pei Li,  You-Sheng Lin,  Fenglai Liu,  
 E. Livshits,  A. Luenser,  P. Manohar,  E. Mansoor,  S. F. Manzer,  
 Shan-Ping Mao,  Yuezhi Mao,  N. Mardirossian,  A. V. Marenich,  
 T. Markovich,  L. A. Martinez-Martinez,  S. A. Maurer,  N. J. Mayhall,  
 S. C. McKenzie,  J.-M. Mewes,  P. Morgante,  A. F. Morrison,  
 J. W. Mullinax,  K. Nanda,  T. S. Nguyen-Beck,  R. Olivares-Amaya,  
 J. A. Parkhill,  Zheng Pei,  T. M. Perrine,  F. Plasser,  P. Pokhilko,  
 S. Prager,  A. Prociuk,  E. Ramos,  D. R. Rehn,  F. Rob,  M. Scheurer,  
 M. Schneider,  N. Sergueev,  S. M. Sharada,  S. Sharma,  D. W. Small,  
 T. Stauch,  T. Stein,  Yu-Chuan Su,  A. J. W. Thom,  A. Tkatchenko,  
 T. Tsuchimochi,  N. M. Tubman,  L. Vogt,  M. L. Vidal,  O. Vydrov,  
 M. A. Watson,  J. Wenzel,  M. de Wergifosse,  T. A. Wesolowski,  A. White,  
 J. Witte,  A. Yamada,  Jun Yang,  K. Yao,  S. Yeganeh,  S. R. Yost,  
 Zhi-Qiang You,  A. Zech,  Igor Ying Zhang,  Xing Zhang,  Yan Zhao,  
 Ying Zhu,  B. R. Brooks,  G. K. L. Chan,  C. J. Cramer,  M. S. Gordon,  
 W. J. Hehre,  A. Klamt,  M. W. Schmidt,  C. D. Sherrill,  D. G. Truhlar,  
 A. Aspuru-Guzik,  R. Baer,  A. T. Bell,  N. A. Besley,  Jeng-Da Chai,  
 A. E. DePrince, III,  R. A. DiStasio Jr.,  A. Dreuw,  B. D. Dunietz,  
 T. R. Furlani,  Chao-Ping Hsu,  Yousung Jung,  Jing Kong,  D. S. Lambrecht,  
 WanZhen Liang,  C. Ochsenfeld,  V. A. Rassolov,  L. V. Slipchenko,  
 J. E. Subotnik,  T. Van Voorhis,  J. M. Herbert,  A. I. Krylov,  
 P. M. W. Gill,  M. Head-Gordon

 Contributors to earlier versions of Q-Chem not listed above: 
 R. D. Adamson,  B. Austin,  J. Baker,  G. J. O. Beran,  K. Brandhorst,  
 S. T. Brown,  E. F. C. Byrd,  A. K. Chakraborty,  C.-L. Cheng,  
 Siu Hung Chien,  D. M. Chipman,  D. L. Crittenden,  H. Dachsel,  
 R. J. Doerksen,  A. D. Dutoi,  L. Fusti-Molnar,  W. A. Goddard III,  
 A. Golubeva-Zadorozhnaya,  S. R. Gwaltney,  G. Hawkins,  A. Heyden,  
 S. Hirata,  G. Kedziora,  F. J. Keil,  C. Kelley,  Jihan Kim,  R. A. King,  
 R. Z. Khaliullin,  P. P. Korambath,  W. Kurlancheek,  A. M. Lee,  M. S. Lee,  
 S. V. Levchenko,  Ching Yeh Lin,  D. Liotard,  R. C. Lochan,  I. Lotan,  
 P. E. Maslen,  N. Nair,  D. P. O'Neill,  D. Neuhauser,  E. Neuscamman,  
 C. M. Oana,  R. Olson,  B. Peters,  R. Peverati,  P. A. Pieniazek,  
 Y. M. Rhee,  J. Ritchie,  M. A. Rohrdanz,  E. Rosta,  N. J. Russ,  
 H. F. Schaefer III,  N. E. Schultz,  N. Shenvi,  A. C. Simmonett,  A. Sodt,  
 D. Stuck,  K. S. Thanthiriwatte,  V. Vanovschi,  Tao Wang,  A. Warshel,  
 C. F. Williams,  Q. Wu,  X. Xu,  W. Zhang

 Please cite Q-Chem as follows:
 Y. Shao et al., Mol. Phys. 113, 184-215 (2015)
 DOI: 10.1080/00268976.2014.952696

 Q-Chem 5.2.1 for Intel X86 EM64T Linux

 Parts of Q-Chem use Armadillo 8.300.2 (Tropical Shenanigans).
 http://arma.sourceforge.net/

 Q-Chem begins on Mon Feb  7 15:05:26 2022  

Host: 
0

     Scratch files written to /gpfs/fs0/scratch/a/aspuru/rhickman/descriptor_computation/qchem90015//
 Jul1719 |scratch|qcdevops|jenkins|workspace|build_RNUM -1
Processing $rem in /scinet/niagara/software/commercial/qc52/config/preferences:
	 MEM_TOTAL  4000 
NAlpha2: 222
NElect   222
Mult     1

Checking the input file for inconsistencies... 	...done.

--------------------------------------------------------------
User input:
--------------------------------------------------------------
$molecule
0 1
C         3.88073032510000   -1.10940660830000   -2.47156965500000
O         3.13471139570000   -1.67661032860000   -1.40288151770000
C         1.80972124480000   -1.50850130140000   -1.42089744490000
C         1.17145979720000   -2.16493817130000   -0.24666952680000
C         0.15399218280000   -1.52376915310000    0.47479392270000
N        -0.19552044930000   -0.19282436040000    0.21129530510000
C         0.79606490370000    0.74307561180000   -0.06767118500000
C         2.04768418890000    0.63390226160000    0.54112526760000
C         3.04459810950000    1.54105000970000    0.22652195080000
C         4.40679540030000    1.39832424650000    0.83969887430000
F         4.42800284500000    0.60851594700000    1.92166318590000
F         5.29529579870000    0.86720380020000   -0.02837177070000
F         4.92915934670000    2.57715234370000    1.21908082500000
C         2.82290033410000    2.57120166360000   -0.67858051430000
C         1.57347673900000    2.68550759030000   -1.26541805050000
C         0.57072538230000    1.78441985120000   -0.97022734890000
C        -1.54499429780000    0.17185149450000    0.20981305390000
C        -1.94824657470000    1.41621548690000    0.69616987890000
C        -3.28163225220000    1.76069877640000    0.70058058700000
C        -4.26091309040000    0.88091514590000    0.22995827970000
C        -5.64665423750000    1.31113739840000    0.27025575740000
C        -6.73156433500000    0.63649350300000   -0.08336017770000
F        -6.80803065090000   -0.60092190950000   -0.55979335320000
F        -7.96149006160000    1.14180859350000    0.00202037720000
C        -3.84890933080000   -0.36382004820000   -0.25392762670000
C        -2.51558062860000   -0.71093818150000   -0.26498646280000
C        -0.48707368670000   -2.21790333600000    1.50030333630000
C        -0.12137856880000   -3.51330121870000    1.80814604690000
C         0.90574799630000   -4.13470111870000    1.11428028290000
C         1.54910468040000   -3.45856102850000    0.09468329870000
O         1.21134663280000   -0.92041956130000   -2.28766937530000
H         4.05620615100000   -1.86791778490000   -3.23654112540000
H         4.82600221030000   -0.77075238720000   -2.05312138020000
H         3.32976964750000   -0.27401174530000   -2.90801978400000
H         2.24055767920000   -0.15637120530000    1.25095903600000
H         3.61455195150000    3.26453646370000   -0.91434279210000
H         1.38775963750000    3.47590729720000   -1.97584372750000
H        -0.38798332400000    1.86031603460000   -1.45868062880000
H        -1.20959983190000    2.10571277390000    1.07714789140000
H        -3.57664601500000    2.72583404680000    1.08520721850000
H        -5.83051073310000    2.31032637170000    0.63836209650000
H        -4.57118240740000   -1.06585283050000   -0.63600532270000
H        -2.21119421720000   -1.67017224270000   -0.65509871190000
H        -1.26938285030000   -1.72440346890000    2.05757762920000
H        -0.62933222920000   -4.03479144420000    2.60518392400000
H         1.20109822210000   -5.14119977990000    1.36595467480000
H         2.34154589080000   -3.93334691150000   -0.46273347940000
$end

$rem
BASIS = 6-31G*
GUI = 2
METHOD = B3LYP
PRINT_ORBITALS false
MOLDEN_FORMAT false
--------------------------------------------------------------
 ----------------------------------------------------------------
             Standard Nuclear Orientation (Angstroms)
    I     Atom           X                Y                Z
 ----------------------------------------------------------------
    1      C       3.9083295356     1.0045394266     2.4358344460
    2      O       3.1554859347     1.6002749631     1.3876530107
    3      C       1.8294154642     1.4425591352     1.4167553046
    4      C       1.1839150847     2.1288675006     0.2637555947
    5      C       0.1533567160     1.5113851694    -0.4597861004
    6      N      -0.2043461967     0.1780323970    -0.2205714413
    7      C       0.7823823695    -0.7715667769     0.0276234792
    8      C       2.0281741902    -0.6596641605    -0.5925243419
    9      C       3.0208578460    -1.5813164690    -0.3081551617
   10      C       4.3774491943    -1.4366728964    -0.9331961144
   11      F       4.3934701574    -0.6243228596    -1.9984305598
   12      F       5.2797297175    -0.9312715092    -0.0639850775
   13      F       4.8858181825    -2.6113931604    -1.3431030710
   14      C       2.8004400004    -2.6285781862     0.5774133986
   15      C       1.5565621405    -2.7451647412     1.1754760237
   16      C       0.5582021874    -1.8299347737     0.9104506327
   17      C      -1.5567154463    -0.1756512190    -0.2118733603
   18      C      -1.9755849800    -1.4061278502    -0.7198819029
   19      C      -3.3117634184    -1.7396295807    -0.7168269633
   20      C      -4.2785057049    -0.8621086778    -0.2169650133
   21      C      -5.6681391989    -1.2801431777    -0.2510165845
   22      C      -6.7434820936    -0.6043754729     0.1287125330
   23      F      -6.8044519358     0.6232499623     0.6319530726
   24      F      -7.9784305838    -1.0977906207     0.0462856484
   25      C      -3.8509092839     0.3687205137     0.2884844636
   26      C      -2.5146935781     0.7047160610     0.2921319670
   27      C      -0.4930167192     2.2322539290    -1.4632834268
   28      C      -0.1199111435     3.5308770966    -1.7477580765
   29      C       0.9198404975     4.1291016958    -1.0523298855
   30      C       1.5685901548     3.4263290762    -0.0543891146
   31      O       1.2356222455     0.8411163568     2.2774887630
   32      H       4.0984257646     1.7452318051     3.2146479956
   33      H       4.8461415251     0.6671791626     1.9999201176
   34      H       3.3552064557     0.1645775485     2.8606283517
   35      H       2.2198952169     0.1438786124    -1.2876202882
   36      H       3.5888046394    -3.3331401392     0.7897408120
   37      H       1.3720022154    -3.5489042206     1.8710819928
   38      H      -0.3957378173    -1.9083922314     1.4077554845
   39      H      -1.2468942106    -2.0933610753    -1.1234534856
   40      H      -3.6189721971    -2.6939806536    -1.1184407728
   41      H      -5.8643052133    -2.2697894073    -0.6380609322
   42      H      -4.5631115325     1.0683301028     0.6932389203
   43      H      -2.1981025471     1.6529753414     0.6990018414
   44      H      -1.2854232024     1.7570205306    -2.0221658529
   45      H      -0.6321389447     4.0732290181    -2.5279602469
   46      H       1.2208116813     5.1382800017    -1.2859680754
   47      H       2.3709733766     3.8827682218     0.5041291419
 ----------------------------------------------------------------
 Molecular Point Group                 C1    NOp =  1
 Largest Abelian Subgroup              C1    NOp =  1
 Nuclear Repulsion Energy =        3083.25522771 hartrees
 There are      111 alpha and      111 beta electrons
 Requested basis set is 6-31G(d)
 There are 156 shells and 497 basis functions

 Total QAlloc Memory Limit   4000 MB
 Mega-Array Size       188 MB
 MEM_STATIC part       192 MB
 A cutoff of  1.0D-08 yielded   5255 shell pairs
 There are     56242 function pairs
 Smallest overlap matrix eigenvalue = 3.27E-04

 Scale SEOQF with 1.000000e-02/1.000000e-01/1.000000e-01

 Standard Electronic Orientation quadrupole field applied
 Nucleus-field energy     =     0.0000000351 hartrees
 Guess from superposition of atomic densities
 Warning:  Energy on first SCF cycle will be non-variational
 SAD guess density has 222.000000 electrons

 -----------------------------------------------------------------------
  General SCF calculation program by
  Eric Jon Sundstrom, Paul Horn, Yuezhi Mao, Dmitri Zuev, Alec White,
  David Stuck, Shaama M.S., Shane Yost, Joonho Lee, David Small,
  Daniel Levine, Susi Lehtola, Hugh Burton, Evgeny Epifanovsky,
  Bang C. Huynh
 -----------------------------------------------------------------------
 Exchange:     0.2000 Hartree-Fock + 0.0800 Slater + 0.7200 B88
 Correlation:  0.1900 VWN1RPA + 0.8100 LYP
 Using SG-1 standard quadrature grid
 A restricted SCF calculation will be
 performed using DIIS
 SCF converges when DIIS error is below 1.0e-05
 ---------------------------------------
  Cycle       Energy         DIIS error
 ---------------------------------------
    1   -1597.9494378381      3.64e-02  
    2   -1589.9759164020      4.19e-03  
    3   -1589.3725962020      6.47e-03  
    4   -1590.4054276032      1.48e-03  
    5   -1590.4614248481      4.79e-04  
    6   -1590.4667366004      1.66e-04  
    7   -1590.4674588048      4.81e-05  
    8   -1590.4675168408      2.04e-05  
    9   -1590.4675298707      5.61e-06  Convergence criterion met
 ---------------------------------------
 SCF time:   CPU 207.53s  wall 208.00s 
 SCF   energy in the final basis set =    -1590.4675298707
 Total energy in the final basis set =    -1590.4675298707
 
 --------------------------------------------------------------
 
                    Orbital Energies (a.u.)
 --------------------------------------------------------------
 
 Alpha MOs
 -- Occupied --
-24.7446 -24.7338 -24.7220 -24.7181 -24.7159 -19.1942 -19.1332 -14.3780
-10.4268 -10.3559 -10.3158 -10.2431 -10.2391 -10.2345 -10.2340 -10.2125
-10.2076 -10.2062 -10.2038 -10.2019 -10.2011 -10.1996 -10.1992 -10.1978
-10.1975 -10.1959 -10.1951 -10.1949 -10.1930 -10.1927 -10.1915  -1.3027
 -1.2852  -1.2244  -1.2130  -1.2076  -1.1102  -1.0195  -0.9917  -0.8779
 -0.8754  -0.8594  -0.8094  -0.7890  -0.7841  -0.7696  -0.7582  -0.7561
 -0.7304  -0.7179  -0.6953  -0.6563  -0.6501  -0.6342  -0.6255  -0.6192
 -0.6177  -0.5955  -0.5800  -0.5773  -0.5739  -0.5723  -0.5613  -0.5487
 -0.5347  -0.5198  -0.5189  -0.5084  -0.5035  -0.4924  -0.4811  -0.4782
 -0.4732  -0.4693  -0.4606  -0.4554  -0.4539  -0.4519  -0.4468  -0.4431
 -0.4428  -0.4410  -0.4320  -0.4263  -0.4213  -0.4152  -0.4127  -0.4083
 -0.4073  -0.4026  -0.3922  -0.3910  -0.3857  -0.3836  -0.3775  -0.3722
 -0.3675  -0.3653  -0.3545  -0.3517  -0.3493  -0.3323  -0.3044  -0.2968
 -0.2801  -0.2695  -0.2666  -0.2601  -0.2580  -0.2383  -0.1888
 -- Virtual --
 -0.0445  -0.0319  -0.0269  -0.0093  -0.0042   0.0125   0.0433   0.0664
  0.0844   0.0917   0.1007   0.1173   0.1192   0.1279   0.1364   0.1397
  0.1443   0.1478   0.1522   0.1559   0.1575   0.1604   0.1644   0.1735
  0.1763   0.1790   0.1819   0.1842   0.1879   0.1912   0.2017   0.2116
  0.2291   0.2431   0.2445   0.2544   0.2671   0.2761   0.2800   0.2874
  0.2940   0.2984   0.3081   0.3138   0.3190   0.3356   0.3494   0.3648
  0.3673   0.3900   0.3970   0.4043   0.4158   0.4239   0.4378   0.4428
  0.4736   0.4797   0.4920   0.4961   0.5012   0.5062   0.5131   0.5226
  0.5239   0.5342   0.5345   0.5405   0.5429   0.5504   0.5550   0.5584
  0.5655   0.5671   0.5712   0.5746   0.5780   0.5842   0.5871   0.5892
  0.5909   0.5964   0.6001   0.6017   0.6040   0.6044   0.6078   0.6095
  0.6180   0.6212   0.6246   0.6383   0.6457   0.6476   0.6524   0.6567
  0.6682   0.6765   0.6891   0.6925   0.7016   0.7155   0.7288   0.7450
  0.7684   0.7768   0.7791   0.7861   0.8032   0.8053   0.8099   0.8181
  0.8271   0.8283   0.8322   0.8350   0.8398   0.8417   0.8442   0.8553
  0.8613   0.8687   0.8719   0.8755   0.8798   0.8823   0.8953   0.9010
  0.9070   0.9274   0.9316   0.9418   0.9542   0.9650   0.9737   0.9789
  0.9869   0.9968   1.0087   1.0172   1.0237   1.0320   1.0360   1.0474
  1.0700   1.0848   1.0871   1.0955   1.1008   1.1050   1.1085   1.1205
  1.1254   1.1361   1.1484   1.1594   1.1612   1.1668   1.1747   1.1771
  1.1825   1.1940   1.2096   1.2127   1.2168   1.2249   1.2294   1.2320
  1.2456   1.2558   1.2627   1.2746   1.2861   1.3047   1.3134   1.3340
  1.3373   1.3420   1.3467   1.3629   1.3701   1.3777   1.3883   1.3905
  1.3991   1.4026   1.4144   1.4204   1.4316   1.4395   1.4409   1.4474
  1.4481   1.4626   1.4660   1.4681   1.4749   1.4814   1.4882   1.4905
  1.4920   1.4989   1.5070   1.5143   1.5279   1.5413   1.5668   1.5957
  1.6173   1.6348   1.6493   1.6556   1.6713   1.6766   1.6917   1.7106
  1.7170   1.7267   1.7325   1.7442   1.7552   1.7693   1.7806   1.7832
  1.7877   1.7982   1.8042   1.8127   1.8232   1.8307   1.8364   1.8446
  1.8513   1.8542   1.8656   1.8682   1.8749   1.8856   1.8945   1.9007
  1.9109   1.9218   1.9365   1.9377   1.9533   1.9567   1.9686   1.9745
  1.9777   1.9836   1.9962   1.9969   2.0073   2.0130   2.0159   2.0257
  2.0306   2.0369   2.0411   2.0416   2.0486   2.0661   2.0736   2.0781
  2.0875   2.0984   2.1008   2.1061   2.1233   2.1274   2.1403   2.1452
  2.1483   2.1581   2.1602   2.1615   2.1684   2.1810   2.1948   2.2040
  2.2170   2.2361   2.2395   2.2510   2.2647   2.2699   2.2860   2.2896
  2.3009   2.3060   2.3154   2.3211   2.3256   2.3357   2.3475   2.3515
  2.3608   2.4111   2.4201   2.4356   2.4535   2.4628   2.4864   2.4982
  2.5230   2.5373   2.5460   2.5631   2.5823   2.6030   2.6079   2.6290
  2.6401   2.6431   2.6483   2.6495   2.6635   2.6770   2.6906   2.6978
  2.7124   2.7219   2.7335   2.7406   2.7540   2.7638   2.7822   2.7976
  2.8056   2.8178   2.8267   2.8587   2.8612   2.8866   2.9140   2.9284
  2.9376   2.9429   2.9659   3.0024   3.0245   3.0475   3.0527   3.0626
  3.0674   3.1148   3.1223   3.1523   3.1611   3.2459   3.3062   3.3314
  3.4421   3.4729   3.4847   4.0067   4.0772   4.0955   4.1035   4.1113
  4.1144   4.1302   4.1401   4.1589   4.1843   4.2081   4.2468   4.2646
  4.2832   4.3196   4.3450   4.3682   4.3948   4.4063   4.4570   4.4858
  4.4866   4.5224   4.5941   4.7025   4.7176   4.7772   4.8075   4.8318
  5.2878   5.6330
 --------------------------------------------------------------
 
          Ground-State Mulliken Net Atomic Charges

     Atom                 Charge (a.u.)
  ----------------------------------------
      1 C                    -0.237488
      2 O                    -0.437337
      3 C                     0.539666
      4 C                     0.067972
      5 C                     0.255987
      6 N                    -0.649864
      7 C                     0.287678
      8 C                    -0.234500
      9 C                    -0.003635
     10 C                     0.776960
     11 F                    -0.263846
     12 F                    -0.264535
     13 F                    -0.267443
     14 C                    -0.166514
     15 C                    -0.144241
     16 C                    -0.134596
     17 C                     0.292474
     18 C                    -0.173765
     19 C                    -0.206504
     20 C                     0.200851
     21 C                    -0.300346
     22 C                     0.541072
     23 F                    -0.235881
     24 F                    -0.249212
     25 C                    -0.206119
     26 C                    -0.167988
     27 C                    -0.166177
     28 C                    -0.129155
     29 C                    -0.131811
     30 C                    -0.168182
     31 O                    -0.474785
     32 H                     0.159361
     33 H                     0.174851
     34 H                     0.186944
     35 H                     0.169260
     36 H                     0.146960
     37 H                     0.140067
     38 H                     0.159128
     39 H                     0.148628
     40 H                     0.131854
     41 H                     0.158720
     42 H                     0.143150
     43 H                     0.154415
     44 H                     0.153218
     45 H                     0.138871
     46 H                     0.134884
     47 H                     0.150952
  ----------------------------------------
  Sum of atomic charges =     0.000000

 -----------------------------------------------------------------
                    Cartesian Multipole Moments
 -----------------------------------------------------------------
    Charge (ESU x 10^10)
                 0.0000
    Dipole Moment (Debye)
         X      -0.4384      Y       0.4136      Z      -0.1830
       Tot       0.6299
    Quadrupole Moments (Debye-Ang)
        XX    -183.5437     XY       6.2136     YY    -155.7008
        XZ      11.8022     YZ      -4.4301     ZZ    -171.4884
    Octopole Moments (Debye-Ang^2)
       XXX      69.7433    XXY       4.1947    XYY       4.9565
       YYY       0.4063    XXZ      37.7368    XYZ      -7.6908
       YYZ      -2.3421    XZZ      13.0247    YZZ      -1.3805
       ZZZ      -3.5653
    Hexadecapole Moments (Debye-Ang^3)
      XXXX  -13764.6111   XXXY      30.5996   XXYY   -2659.0280
      XYYY      -3.6377   YYYY   -3440.7820   XXXZ     149.6453
      XXYZ      39.3853   XYYZ      39.8402   YYYZ     -44.7013
      XXZZ   -2285.3030   XYZZ     -15.6378   YYZZ    -787.0153
      XZZZ     -61.1482   YZZZ      38.3338   ZZZZ   -1369.3897
 -----------------------------------------------------------------
Archival summary:
1\1\nia1977.scinet.local\SP\ProcedureUnspecified\6-31G*\5212316\rhickman\MonFeb715:08:552022MonFeb715:08:552022\0\\#,ProcedureUnspecified,6-31G*,\\0,1\N\C,1,1.39175\C,2,1.3961,1,119.917\H,3,1.07963,2,120.272,1,-1.87274,0\C,3,1.3841,2,119.693,1,177.853,0\C,5,1.38909,3,121.279,2,0.560964,0\H,6,1.07843,5,120.137,3,-179.663,0\C,6,1.3851,5,118.766,3,0.326081,0\H,8,1.07885,6,119.652,5,-179.553,0\C,8,1.38007,6,120.725,5,-0.769125,0\H,10,1.07864,8,120.199,6,-177.806,0\C,1,1.39788,2,120.808,3,147.937,0\C,12,1.39527,1,120.454,2,143.255,0\H,13,1.07934,12,119.282,1,-1.54561,0\C,13,1.37782,12,120.733,1,179.2,0\H,15,1.07727,13,118.802,12,179.468,0\C,12,1.39556,1,120.743,2,-37.4942,0\H,17,1.07988,12,119.645,1,0.0579175,0\C,17,1.37717,12,120.26,1,-179.442,0\H,19,1.08003,17,119.284,12,179.693,0\C,15,1.39759,13,120.826,12,0.141395,0\C,1,1.40107,2,119.918,3,-33.1882,0\C,22,1.39444,1,119.769,2,138.337,0\H,23,1.07986,22,119.018,1,1.92372,0\C,23,1.38078,22,120.611,1,-177.541,0\H,25,1.07946,23,119.552,22,-179.981,0\C,25,1.38657,23,120.336,22,1.06862,0\H,27,1.07871,25,120.28,23,179.032,0\C,27,1.38226,25,119.649,23,-1.10323,0\H,29,1.07893,27,120.51,25,-179.208,0\C,29,1.39018,27,120.655,25,-0.36511,0\C,21,1.45155,15,123.712,13,179.977,0\H,32,1.08059,21,116.484,15,-178.081,0\C,32,1.3256,21,128.541,15,2.14033,0\F,34,1.32817,32,128.095,21,0.0810892,0\F,34,1.33242,32,123.05,21,179.876,0\C,31,1.48899,29,119.172,27,-175.045,0\O,37,1.20631,31,124.676,29,132.759,0\O,37,1.33573,31,111.044,29,-46.1144,0\C,39,1.42139,37,117.404,31,179.59,0\H,40,1.08781,39,106.923,37,144.797,0\H,40,1.09147,39,109.513,37,-95.7441,0\H,40,1.09176,39,109.941,37,24.5248,0\C,5,1.50065,3,119.907,2,-177.759,0\F,44,1.33974,5,113.605,3,-17.3419,0\F,44,1.34404,5,112.626,3,-138.451,0\F,44,1.35095,5,111.829,3,102.684,0\\\@

 Total job time:  208.62s(wall), 208.10s(cpu) 
 Mon Feb  7 15:08:55 2022

        *************************************************************
        *                                                           *
        *  Thank you very much for using Q-Chem.  Have a nice day.  *
        *                                                           *
        *************************************************************


