
Running Job 1 of 1 fragments/C032/conf-2/spe_input.inp
qchem fragments/C032/conf-2/spe_input.inp_94225.0 /gpfs/fs0/scratch/a/aspuru/rhickman/descriptor_computation/qchem94225/ 0
/scinet/niagara/software/commercial/qc52/exe/qcprog.exe_s fragments/C032/conf-2/spe_input.inp_94225.0 /gpfs/fs0/scratch/a/aspuru/rhickman/descriptor_computation/qchem94225/
                  Welcome to Q-Chem
     A Quantum Leap Into The Future Of Chemistry


 Q-Chem 5.2, Q-Chem, Inc., Pleasanton, CA (2019)

 License issued to: SRG Alan Aspuru-Guzik, University of Toronto

 Yihan Shao,  Zhengting Gan,  E. Epifanovsky,  A. T. B. Gilbert,  M. Wormit,  
 J. Kussmann,  A. W. Lange,  A. Behn,  Jia Deng,  Xintian Feng,  D. Ghosh,  
 M. Goldey,  P. R. Horn,  L. D. Jacobson,  I. Kaliman,  T. Kus,  A. Landau,  
 Jie Liu,  E. I. Proynov,  R. M. Richard,  R. P. Steele,  E. J. Sundstrom,  
 H. L. Woodcock III,  P. M. Zimmerman,  D. Zuev,  B. Albrecht,  E. Alguire,  
 S. A. Baeppler,  D. Barton,  Z. Benda,  Y. A. Bernard,  E. J. Berquist,  
 K. B. Bravaya,  H. Burton,  D. Casanova,  Chun-Min Chang,  Yunqing Chen,  
 A. Chien,  K. D. Closser,  M. P. Coons,  S. Coriani,  S. Dasgupta,  
 A. L. Dempwolff,  M. Diedenhofen,  Hainam Do,  R. G. Edgar,  Po-Tung Fang,  
 S. Faraji,  S. Fatehi,  Qingguo Feng,  K. D. Fenk,  J. Fosso-Tande,  
 J. Gayvert,  Qinghui Ge,  A. Ghysels,  G. Gidofalvi,  J. Gomes,  
 J. Gonthier,  A. Gunina,  D. Hait,  M. W. D. Hanson-Heine,  
 P. H. P. Harbach,  A. W. Hauser,  M. F. Herbst,  J. E. Herr,  
 E. G. Hohenstein,  Z. C. Holden,  Kerwin Hui,  B. C. Huynh,  T.-C. Jagau,  
 Hyunjun Ji,  B. Kaduk,  K. Khistyaev,  Jaehoon Kim,  P. Klunzinger,  K. Koh,  
 D. Kosenkov,  L. Koulias,  T. Kowalczyk,  C. M. Krauter,  A. Kunitsa,  
 Ka Un Lao,  A. Laurent,  K. V. Lawler,  Joonho Lee,  D. Lefrancois,  
 S. Lehtola,  D. S. Levine,  Yi-Pei Li,  You-Sheng Lin,  Fenglai Liu,  
 E. Livshits,  A. Luenser,  P. Manohar,  E. Mansoor,  S. F. Manzer,  
 Shan-Ping Mao,  Yuezhi Mao,  N. Mardirossian,  A. V. Marenich,  
 T. Markovich,  L. A. Martinez-Martinez,  S. A. Maurer,  N. J. Mayhall,  
 S. C. McKenzie,  J.-M. Mewes,  P. Morgante,  A. F. Morrison,  
 J. W. Mullinax,  K. Nanda,  T. S. Nguyen-Beck,  R. Olivares-Amaya,  
 J. A. Parkhill,  Zheng Pei,  T. M. Perrine,  F. Plasser,  P. Pokhilko,  
 S. Prager,  A. Prociuk,  E. Ramos,  D. R. Rehn,  F. Rob,  M. Scheurer,  
 M. Schneider,  N. Sergueev,  S. M. Sharada,  S. Sharma,  D. W. Small,  
 T. Stauch,  T. Stein,  Yu-Chuan Su,  A. J. W. Thom,  A. Tkatchenko,  
 T. Tsuchimochi,  N. M. Tubman,  L. Vogt,  M. L. Vidal,  O. Vydrov,  
 M. A. Watson,  J. Wenzel,  M. de Wergifosse,  T. A. Wesolowski,  A. White,  
 J. Witte,  A. Yamada,  Jun Yang,  K. Yao,  S. Yeganeh,  S. R. Yost,  
 Zhi-Qiang You,  A. Zech,  Igor Ying Zhang,  Xing Zhang,  Yan Zhao,  
 Ying Zhu,  B. R. Brooks,  G. K. L. Chan,  C. J. Cramer,  M. S. Gordon,  
 W. J. Hehre,  A. Klamt,  M. W. Schmidt,  C. D. Sherrill,  D. G. Truhlar,  
 A. Aspuru-Guzik,  R. Baer,  A. T. Bell,  N. A. Besley,  Jeng-Da Chai,  
 A. E. DePrince, III,  R. A. DiStasio Jr.,  A. Dreuw,  B. D. Dunietz,  
 T. R. Furlani,  Chao-Ping Hsu,  Yousung Jung,  Jing Kong,  D. S. Lambrecht,  
 WanZhen Liang,  C. Ochsenfeld,  V. A. Rassolov,  L. V. Slipchenko,  
 J. E. Subotnik,  T. Van Voorhis,  J. M. Herbert,  A. I. Krylov,  
 P. M. W. Gill,  M. Head-Gordon

 Contributors to earlier versions of Q-Chem not listed above: 
 R. D. Adamson,  B. Austin,  J. Baker,  G. J. O. Beran,  K. Brandhorst,  
 S. T. Brown,  E. F. C. Byrd,  A. K. Chakraborty,  C.-L. Cheng,  
 Siu Hung Chien,  D. M. Chipman,  D. L. Crittenden,  H. Dachsel,  
 R. J. Doerksen,  A. D. Dutoi,  L. Fusti-Molnar,  W. A. Goddard III,  
 A. Golubeva-Zadorozhnaya,  S. R. Gwaltney,  G. Hawkins,  A. Heyden,  
 S. Hirata,  G. Kedziora,  F. J. Keil,  C. Kelley,  Jihan Kim,  R. A. King,  
 R. Z. Khaliullin,  P. P. Korambath,  W. Kurlancheek,  A. M. Lee,  M. S. Lee,  
 S. V. Levchenko,  Ching Yeh Lin,  D. Liotard,  R. C. Lochan,  I. Lotan,  
 P. E. Maslen,  N. Nair,  D. P. O'Neill,  D. Neuhauser,  E. Neuscamman,  
 C. M. Oana,  R. Olson,  B. Peters,  R. Peverati,  P. A. Pieniazek,  
 Y. M. Rhee,  J. Ritchie,  M. A. Rohrdanz,  E. Rosta,  N. J. Russ,  
 H. F. Schaefer III,  N. E. Schultz,  N. Shenvi,  A. C. Simmonett,  A. Sodt,  
 D. Stuck,  K. S. Thanthiriwatte,  V. Vanovschi,  Tao Wang,  A. Warshel,  
 C. F. Williams,  Q. Wu,  X. Xu,  W. Zhang

 Please cite Q-Chem as follows:
 Y. Shao et al., Mol. Phys. 113, 184-215 (2015)
 DOI: 10.1080/00268976.2014.952696

 Q-Chem 5.2.1 for Intel X86 EM64T Linux

 Parts of Q-Chem use Armadillo 8.300.2 (Tropical Shenanigans).
 http://arma.sourceforge.net/

 Q-Chem begins on Mon Feb  7 15:22:22 2022  

Host: 
0

     Scratch files written to /gpfs/fs0/scratch/a/aspuru/rhickman/descriptor_computation/qchem94225//
 Jul1719 |scratch|qcdevops|jenkins|workspace|build_RNUM -1
Processing $rem in /scinet/niagara/software/commercial/qc52/config/preferences:
	 MEM_TOTAL  4000 
NAlpha2: 102
NElect   102
Mult     1

Checking the input file for inconsistencies... 	...done.

--------------------------------------------------------------
User input:
--------------------------------------------------------------
$molecule
0 1
C         3.79477357520000   -1.83673552490000    0.43566292780000
C         3.52420922150000   -0.57805176220000    0.11092993340000
C         2.20056003010000    0.01151067510000   -0.03371745580000
C         1.00820058320000   -0.70201044730000    0.10966003410000
C        -0.20169310150000   -0.04126768920000   -0.03704113940000
C        -1.46572374120000   -0.85636140330000    0.06549977770000
F        -1.24044299880000   -2.16255450980000   -0.15629044130000
F        -2.02942979180000   -0.79080534950000    1.28795667240000
F        -2.41061838100000   -0.49422786430000   -0.81353977320000
C        -0.21746666030000    1.33173331370000   -0.31167275080000
C        -1.40881417720000    2.16859033510000   -0.43939693230000
C        -2.44072405260000    2.17504897100000    0.39169293080000
C         1.04085755450000    1.92908384500000   -0.47575656720000
N         2.18708917980000    1.31050036490000   -0.33941308100000
H         4.81035475290000   -2.18221030460000    0.52198526820000
H         3.03049904430000   -2.57036388850000    0.62885923200000
H         4.32408770430000    0.12628203430000   -0.07134681130000
H         1.02221949590000   -1.76003629230000    0.31332500590000
H        -1.36777766420000    2.87918646180000   -1.25543039350000
H        -2.50346614560000    1.52654411160000    1.24825919900000
H        -3.26405822510000    2.85310439320000    0.24913112800000
H         1.10362740420000    2.98180884040000   -0.72014830230000
$end

$rem
BASIS = 6-31G*
GUI = 2
METHOD = B3LYP
PRINT_ORBITALS false
MOLDEN_FORMAT false
--------------------------------------------------------------
 ----------------------------------------------------------------
             Standard Nuclear Orientation (Angstroms)
    I     Atom           X                Y                Z
 ----------------------------------------------------------------
    1      C       4.0429834790    -1.1060477277     0.2346032190
    2      C       3.5150474469     0.1030101367     0.0849234675
    3      C       2.0967454656     0.4220145738     0.0000142483
    4      C       1.0788661022    -0.5345037923     0.0196296527
    5      C      -0.2428401807    -0.1228765687    -0.0552067386
    6      C      -1.3103389226    -1.1867313702    -0.0916108295
    7      F      -0.8228953449    -2.3739153194    -0.4904538752
    8      F      -1.8620194368    -1.4119025558     1.1172768884
    9      F      -2.3191842569    -0.9062990462    -0.9284297559
   10      C      -0.5445146878     1.2422264462    -0.1345120456
   11      C      -1.8841971709     1.8255305841    -0.1654825775
   12      C      -2.8860780675     1.5020821296     0.6390084615
   13      C       0.5616443409     2.1027468253    -0.1897195276
   14      N       1.8122513625     1.7203097358    -0.1203945184
   15      H       5.1088713397    -1.2438330277     0.2903506675
   16      H       3.4486488327    -2.0009975937     0.3086438301
   17      H       4.1503807816     0.9753753249     0.0182374273
   18      H       1.3130710279    -1.5849350292     0.0728922922
   19      H      -1.9995711823     2.6373504472    -0.8727157836
   20      H      -2.8043061420     0.7401977242     1.3946845825
   21      H      -3.8330889380     2.0094223183     0.5778649679
   22      H       0.4032192612     3.1695965575    -0.2826196521
 ----------------------------------------------------------------
 Molecular Point Group                 C1    NOp =  1
 Largest Abelian Subgroup              C1    NOp =  1
 Nuclear Repulsion Energy =         892.68065090 hartrees
 There are       51 alpha and       51 beta electrons
 Requested basis set is 6-31G(d)
 There are 72 shells and 226 basis functions

 Total QAlloc Memory Limit   4000 MB
 Mega-Array Size       188 MB
 MEM_STATIC part       192 MB
 A cutoff of  1.0D-08 yielded   1754 shell pairs
 There are     19058 function pairs
 Smallest overlap matrix eigenvalue = 5.22E-04

 Scale SEOQF with 1.000000e-01/1.000000e-01/1.000000e+00

 Standard Electronic Orientation quadrupole field applied
 Nucleus-field energy     =     0.0000000027 hartrees
 Guess from superposition of atomic densities
 Warning:  Energy on first SCF cycle will be non-variational
 SAD guess density has 102.000000 electrons

 -----------------------------------------------------------------------
  General SCF calculation program by
  Eric Jon Sundstrom, Paul Horn, Yuezhi Mao, Dmitri Zuev, Alec White,
  David Stuck, Shaama M.S., Shane Yost, Joonho Lee, David Small,
  Daniel Levine, Susi Lehtola, Hugh Burton, Evgeny Epifanovsky,
  Bang C. Huynh
 -----------------------------------------------------------------------
 Exchange:     0.2000 Hartree-Fock + 0.0800 Slater + 0.7200 B88
 Correlation:  0.1900 VWN1RPA + 0.8100 LYP
 Using SG-1 standard quadrature grid
 A restricted SCF calculation will be
 performed using DIIS
 SCF converges when DIIS error is below 1.0e-05
 ---------------------------------------
  Cycle       Energy         DIIS error
 ---------------------------------------
    1    -743.1522145194      5.25e-02  
    2    -739.8987320711      6.09e-03  
    3    -739.7940080518      7.96e-03  
    4    -740.1006793668      1.37e-03  
    5    -740.1105247049      4.96e-04  
    6    -740.1118867954      2.13e-04  
    7    -740.1121620515      4.16e-05  
    8    -740.1121700238      1.93e-05  
    9    -740.1121724653      3.66e-06  Convergence criterion met
 ---------------------------------------
 SCF time:   CPU 33.81s  wall 34.00s 
 SCF   energy in the final basis set =     -740.1121724653
 Total energy in the final basis set =     -740.1121724653
 
 --------------------------------------------------------------
 
                    Orbital Energies (a.u.)
 --------------------------------------------------------------
 
 Alpha MOs
 -- Occupied --
-24.7287 -24.7267 -24.7251 -14.3377 -10.4380 -10.2390 -10.2335 -10.2318
-10.2227 -10.2139 -10.2038 -10.1970 -10.1937 -10.1920  -1.3120  -1.2195
 -1.2185  -0.9650  -0.8519  -0.8185  -0.7878  -0.7405  -0.7178  -0.6665
 -0.6461  -0.6029  -0.5903  -0.5869  -0.5836  -0.5402  -0.5163  -0.4979
 -0.4776  -0.4672  -0.4623  -0.4578  -0.4457  -0.4370  -0.4261  -0.4170
 -0.4141  -0.4031  -0.4002  -0.3876  -0.3684  -0.3628  -0.3283  -0.3021
 -0.2847  -0.2629  -0.2348
 -- Virtual --
 -0.0625  -0.0391   0.0067   0.0537   0.1019   0.1123   0.1218   0.1327
  0.1415   0.1453   0.1622   0.1813   0.1939   0.2001   0.2199   0.2398
  0.2558   0.2603   0.3042   0.3096   0.3280   0.3436   0.3482   0.3717
  0.4171   0.4330   0.4643   0.4857   0.4858   0.4959   0.5098   0.5220
  0.5229   0.5469   0.5586   0.5640   0.5712   0.6006   0.6153   0.6246
  0.6320   0.6412   0.6461   0.6643   0.6746   0.6792   0.6935   0.7302
  0.7468   0.7671   0.8024   0.8259   0.8440   0.8558   0.8611   0.8649
  0.8721   0.8749   0.9010   0.9224   0.9397   0.9484   0.9532   0.9744
  1.0109   1.0150   1.0394   1.0855   1.0908   1.1113   1.1236   1.1398
  1.1556   1.1639   1.1909   1.2032   1.2393   1.2503   1.2666   1.2943
  1.3052   1.3355   1.3482   1.3709   1.3978   1.4012   1.4241   1.4472
  1.4518   1.4682   1.4796   1.5055   1.5247   1.5297   1.5735   1.6014
  1.6381   1.6481   1.6685   1.6722   1.7000   1.7257   1.7417   1.7789
  1.7929   1.8229   1.8521   1.8602   1.8704   1.8973   1.9109   1.9384
  1.9570   1.9647   1.9870   1.9903   1.9968   2.0299   2.0308   2.0737
  2.0849   2.0972   2.1186   2.1285   2.1336   2.1510   2.1644   2.1926
  2.2172   2.2399   2.2572   2.2994   2.3115   2.3399   2.3552   2.3822
  2.4112   2.4197   2.4449   2.4921   2.5375   2.5751   2.6068   2.6441
  2.6630   2.6757   2.6866   2.7444   2.7685   2.7914   2.8418   2.8603
  2.8927   2.9301   2.9792   3.0312   3.0459   3.1060   3.1481   3.2578
  3.4484   4.0413   4.0812   4.1080   4.1464   4.1631   4.2337   4.2808
  4.2892   4.4386   4.5125   4.5617   4.6770   4.7946   5.6388
 --------------------------------------------------------------
 
          Ground-State Mulliken Net Atomic Charges

     Atom                 Charge (a.u.)
  ----------------------------------------
      1 C                    -0.345414
      2 C                    -0.088795
      3 C                     0.300834
      4 C                    -0.211627
      5 C                    -0.040811
      6 C                     0.801878
      7 F                    -0.266817
      8 F                    -0.260457
      9 F                    -0.258965
     10 C                     0.090238
     11 C                    -0.142865
     12 C                    -0.323762
     13 C                    -0.002499
     14 N                    -0.472707
     15 H                     0.154840
     16 H                     0.148656
     17 H                     0.150280
     18 H                     0.159594
     19 H                     0.147316
     20 H                     0.162185
     21 H                     0.151494
     22 H                     0.147404
  ----------------------------------------
  Sum of atomic charges =     0.000000

 -----------------------------------------------------------------
                    Cartesian Multipole Moments
 -----------------------------------------------------------------
    Charge (ESU x 10^10)
                -0.0000
    Dipole Moment (Debye)
         X       0.1746      Y       0.3237      Z       0.1364
       Tot       0.3923
    Quadrupole Moments (Debye-Ang)
        XX     -74.0088     XY      -8.7087     YY     -76.6172
        XZ      -0.1506     YZ      -1.6353     ZZ     -79.8428
    Octopole Moments (Debye-Ang^2)
       XXX     -19.5397    XXY     -14.9520    XYY     -16.8685
       YYY     -28.1531    XXZ       5.9817    XYZ       0.4687
       YYZ      -4.3371    XZZ     -17.1928    YZZ     -10.6205
       ZZZ      -3.2766
    Hexadecapole Moments (Debye-Ang^3)
      XXXX   -2096.1265   XXXY     -22.6649   XXYY    -538.8156
      XYYY      11.8867   YYYY    -968.8208   XXXZ      -1.7751
      XXYZ      -2.0709   XYYZ      12.2717   YYYZ     -15.2449
      XXZZ    -434.5049   XYZZ      18.9728   YYZZ    -198.2982
      XZZZ       0.3952   YZZZ       2.4658   ZZZZ    -169.7346
 -----------------------------------------------------------------
Archival summary:
1\1\nia1977.scinet.local\SP\ProcedureUnspecified\6-31G*\31108\rhickman\MonFeb715:22:562022MonFeb715:22:562022\0\\#,ProcedureUnspecified,6-31G*,\\0,1\F\C,1,1.3404\F,2,1.34391,1,105.815\F,2,1.34776,1,106.669,3,-111.998,0\C,2,1.50754,1,113.602,3,123.206,0\C,5,1.38634,2,117.831,1,-140.629,0\H,6,1.07754,5,119.956,2,-1.42025,0\C,6,1.39692,5,119.381,2,177.399,0\N,8,1.33454,6,120.802,5,-1.54191,0\C,9,1.30961,8,119.501,6,1.59226,0\H,10,1.08254,9,115.6,8,179.775,0\C,5,1.40029,2,122.279,1,37.4211,0\C,8,1.45621,6,123.978,5,179.43,0\H,13,1.08126,8,113.076,6,177.948,0\C,13,1.32776,8,126.393,6,-2.35091,0\H,15,1.0762,13,121.08,8,-179.816,0\H,15,1.07687,13,123.03,8,0.111737,0\C,12,1.46149,5,125.999,2,4.55281,0\H,18,1.08284,12,114.251,5,-138.144,0\C,18,1.32499,12,125.65,5,46.5599,0\H,20,1.07609,18,121.055,12,177.416,0\H,20,1.0762,18,122.8,12,-1.5358,0\\\@

 Total job time:  34.10s(wall), 33.99s(cpu) 
 Mon Feb  7 15:22:56 2022

        *************************************************************
        *                                                           *
        *  Thank you very much for using Q-Chem.  Have a nice day.  *
        *                                                           *
        *************************************************************


