
Running Job 1 of 1 fragments/C080/conf-0/spe_input.inp
qchem fragments/C080/conf-0/spe_input.inp_81586.0 /gpfs/fs0/scratch/a/aspuru/rhickman/descriptor_computation/qchem81586/ 0
/scinet/niagara/software/commercial/qc52/exe/qcprog.exe_s fragments/C080/conf-0/spe_input.inp_81586.0 /gpfs/fs0/scratch/a/aspuru/rhickman/descriptor_computation/qchem81586/
                  Welcome to Q-Chem
     A Quantum Leap Into The Future Of Chemistry


 Q-Chem 5.2, Q-Chem, Inc., Pleasanton, CA (2019)

 License issued to: SRG Alan Aspuru-Guzik, University of Toronto

 Yihan Shao,  Zhengting Gan,  E. Epifanovsky,  A. T. B. Gilbert,  M. Wormit,  
 J. Kussmann,  A. W. Lange,  A. Behn,  Jia Deng,  Xintian Feng,  D. Ghosh,  
 M. Goldey,  P. R. Horn,  L. D. Jacobson,  I. Kaliman,  T. Kus,  A. Landau,  
 Jie Liu,  E. I. Proynov,  R. M. Richard,  R. P. Steele,  E. J. Sundstrom,  
 H. L. Woodcock III,  P. M. Zimmerman,  D. Zuev,  B. Albrecht,  E. Alguire,  
 S. A. Baeppler,  D. Barton,  Z. Benda,  Y. A. Bernard,  E. J. Berquist,  
 K. B. Bravaya,  H. Burton,  D. Casanova,  Chun-Min Chang,  Yunqing Chen,  
 A. Chien,  K. D. Closser,  M. P. Coons,  S. Coriani,  S. Dasgupta,  
 A. L. Dempwolff,  M. Diedenhofen,  Hainam Do,  R. G. Edgar,  Po-Tung Fang,  
 S. Faraji,  S. Fatehi,  Qingguo Feng,  K. D. Fenk,  J. Fosso-Tande,  
 J. Gayvert,  Qinghui Ge,  A. Ghysels,  G. Gidofalvi,  J. Gomes,  
 J. Gonthier,  A. Gunina,  D. Hait,  M. W. D. Hanson-Heine,  
 P. H. P. Harbach,  A. W. Hauser,  M. F. Herbst,  J. E. Herr,  
 E. G. Hohenstein,  Z. C. Holden,  Kerwin Hui,  B. C. Huynh,  T.-C. Jagau,  
 Hyunjun Ji,  B. Kaduk,  K. Khistyaev,  Jaehoon Kim,  P. Klunzinger,  K. Koh,  
 D. Kosenkov,  L. Koulias,  T. Kowalczyk,  C. M. Krauter,  A. Kunitsa,  
 Ka Un Lao,  A. Laurent,  K. V. Lawler,  Joonho Lee,  D. Lefrancois,  
 S. Lehtola,  D. S. Levine,  Yi-Pei Li,  You-Sheng Lin,  Fenglai Liu,  
 E. Livshits,  A. Luenser,  P. Manohar,  E. Mansoor,  S. F. Manzer,  
 Shan-Ping Mao,  Yuezhi Mao,  N. Mardirossian,  A. V. Marenich,  
 T. Markovich,  L. A. Martinez-Martinez,  S. A. Maurer,  N. J. Mayhall,  
 S. C. McKenzie,  J.-M. Mewes,  P. Morgante,  A. F. Morrison,  
 J. W. Mullinax,  K. Nanda,  T. S. Nguyen-Beck,  R. Olivares-Amaya,  
 J. A. Parkhill,  Zheng Pei,  T. M. Perrine,  F. Plasser,  P. Pokhilko,  
 S. Prager,  A. Prociuk,  E. Ramos,  D. R. Rehn,  F. Rob,  M. Scheurer,  
 M. Schneider,  N. Sergueev,  S. M. Sharada,  S. Sharma,  D. W. Small,  
 T. Stauch,  T. Stein,  Yu-Chuan Su,  A. J. W. Thom,  A. Tkatchenko,  
 T. Tsuchimochi,  N. M. Tubman,  L. Vogt,  M. L. Vidal,  O. Vydrov,  
 M. A. Watson,  J. Wenzel,  M. de Wergifosse,  T. A. Wesolowski,  A. White,  
 J. Witte,  A. Yamada,  Jun Yang,  K. Yao,  S. Yeganeh,  S. R. Yost,  
 Zhi-Qiang You,  A. Zech,  Igor Ying Zhang,  Xing Zhang,  Yan Zhao,  
 Ying Zhu,  B. R. Brooks,  G. K. L. Chan,  C. J. Cramer,  M. S. Gordon,  
 W. J. Hehre,  A. Klamt,  M. W. Schmidt,  C. D. Sherrill,  D. G. Truhlar,  
 A. Aspuru-Guzik,  R. Baer,  A. T. Bell,  N. A. Besley,  Jeng-Da Chai,  
 A. E. DePrince, III,  R. A. DiStasio Jr.,  A. Dreuw,  B. D. Dunietz,  
 T. R. Furlani,  Chao-Ping Hsu,  Yousung Jung,  Jing Kong,  D. S. Lambrecht,  
 WanZhen Liang,  C. Ochsenfeld,  V. A. Rassolov,  L. V. Slipchenko,  
 J. E. Subotnik,  T. Van Voorhis,  J. M. Herbert,  A. I. Krylov,  
 P. M. W. Gill,  M. Head-Gordon

 Contributors to earlier versions of Q-Chem not listed above: 
 R. D. Adamson,  B. Austin,  J. Baker,  G. J. O. Beran,  K. Brandhorst,  
 S. T. Brown,  E. F. C. Byrd,  A. K. Chakraborty,  C.-L. Cheng,  
 Siu Hung Chien,  D. M. Chipman,  D. L. Crittenden,  H. Dachsel,  
 R. J. Doerksen,  A. D. Dutoi,  L. Fusti-Molnar,  W. A. Goddard III,  
 A. Golubeva-Zadorozhnaya,  S. R. Gwaltney,  G. Hawkins,  A. Heyden,  
 S. Hirata,  G. Kedziora,  F. J. Keil,  C. Kelley,  Jihan Kim,  R. A. King,  
 R. Z. Khaliullin,  P. P. Korambath,  W. Kurlancheek,  A. M. Lee,  M. S. Lee,  
 S. V. Levchenko,  Ching Yeh Lin,  D. Liotard,  R. C. Lochan,  I. Lotan,  
 P. E. Maslen,  N. Nair,  D. P. O'Neill,  D. Neuhauser,  E. Neuscamman,  
 C. M. Oana,  R. Olson,  B. Peters,  R. Peverati,  P. A. Pieniazek,  
 Y. M. Rhee,  J. Ritchie,  M. A. Rohrdanz,  E. Rosta,  N. J. Russ,  
 H. F. Schaefer III,  N. E. Schultz,  N. Shenvi,  A. C. Simmonett,  A. Sodt,  
 D. Stuck,  K. S. Thanthiriwatte,  V. Vanovschi,  Tao Wang,  A. Warshel,  
 C. F. Williams,  Q. Wu,  X. Xu,  W. Zhang

 Please cite Q-Chem as follows:
 Y. Shao et al., Mol. Phys. 113, 184-215 (2015)
 DOI: 10.1080/00268976.2014.952696

 Q-Chem 5.2.1 for Intel X86 EM64T Linux

 Parts of Q-Chem use Armadillo 8.300.2 (Tropical Shenanigans).
 http://arma.sourceforge.net/

 Q-Chem begins on Mon Feb  7 14:34:53 2022  

Host: 
0

     Scratch files written to /gpfs/fs0/scratch/a/aspuru/rhickman/descriptor_computation/qchem81586//
 Jul1719 |scratch|qcdevops|jenkins|workspace|build_RNUM -1
Processing $rem in /scinet/niagara/software/commercial/qc52/config/preferences:
	 MEM_TOTAL  4000 
NAlpha2: 72
NElect   72
Mult     1

Checking the input file for inconsistencies... 	...done.

--------------------------------------------------------------
User input:
--------------------------------------------------------------
$molecule
0 1
C        -3.18665960230000    1.02870385990000    0.00139141580000
C        -2.61485199340000   -0.17071109120000   -0.00147129510000
C        -1.19591519560000   -0.39362520160000   -0.00073169250000
N        -0.65546190520000   -1.57026780430000   -0.00061182310000
N         0.65546350260000   -1.57026820210000    0.00041990210000
C         1.19591848690000   -0.39362562480000    0.00080201310000
C         2.61485163650000   -0.17070762990000    0.00164322070000
C         3.18665048490000    1.02870405710000   -0.00185619580000
S         0.00000245940000    0.89855088120000    0.00019022610000
H        -4.25625352490000    1.14205030330000    0.00080937230000
H        -2.60229081540000    1.93477567050000    0.00457942020000
H        -3.19987716170000   -1.07964439360000   -0.00435367360000
H         3.19987767710000   -1.07964227460000    0.00506261710000
H         2.60227294760000    1.93477905100000   -0.00563521700000
H         4.25624413010000    1.14205397690000   -0.00119435240000
$end

$rem
BASIS = 6-31G*
GUI = 2
METHOD = B3LYP
PRINT_ORBITALS false
MOLDEN_FORMAT false
--------------------------------------------------------------
 ----------------------------------------------------------------
             Standard Nuclear Orientation (Angstroms)
    I     Atom           X                Y                Z
 ----------------------------------------------------------------
    1      C       3.1866594601    -1.0014833892     0.0013915428
    2      C       2.6148517901     0.1979314824    -0.0014921706
    3      C       1.1959149915     0.4208455647    -0.0007455673
    4      N       0.6554616655     1.5974881529    -0.0006464719
    5      N      -0.6554637337     1.5974885323     0.0003961429
    6      C      -1.1959186782     0.4208459467     0.0008080068
    7      C      -2.6148518138     0.1979279260     0.0016657875
    8      C      -3.1866506539    -1.0014838536    -0.0018031269
    9      S      -0.0000026155    -0.8713305351     0.0002140296
   10      H       4.2562533814    -1.1148298120     0.0008030481
   11      H       2.6022907279    -1.9075551493     0.0046038556
   12      H       3.1998769061     1.1068647408    -0.0043989243
   13      H      -3.1998778543     1.1068626258     0.0050705280
   14      H      -2.6022731197    -1.9075589103    -0.0055675482
   15      H      -4.2562442900    -1.1148337923    -0.0011299649
 ----------------------------------------------------------------
 Molecular Point Group                 C1    NOp =  1
 Largest Abelian Subgroup              C1    NOp =  1
 Nuclear Repulsion Energy =         480.71776776 hartrees
 There are       36 alpha and       36 beta electrons
 Requested basis set is 6-31G(d)
 There are 49 shells and 151 basis functions

 Total QAlloc Memory Limit   4000 MB
 Mega-Array Size       188 MB
 MEM_STATIC part       192 MB

                       Distance Matrix (Angstroms)
             C (  1)   C (  2)   C (  3)   N (  4)   N (  5)   C (  6)
   C (  2)  1.328747
   C (  3)  2.446648  1.436340
   N (  4)  3.627895  2.407897  1.294827
   N (  5)  4.638595  3.557208  2.193648  1.310926
   C (  6)  4.607604  3.817285  2.391834  2.193650  1.294828
   C (  7)  5.924198  5.229705  3.817282  3.557207  2.407898  1.436337
   C (  8)  6.373311  5.924190  4.607592  4.638586  3.627888  2.446639
   S (  9)  3.189319  2.825029  1.760664  2.554349  2.554349  1.760663
   H ( 10)  1.075583  2.101796  3.424029  4.508034  5.610850  5.664316
   H ( 11)  1.078176  2.105533  2.720179  4.009426  4.785218  4.455094
   H ( 12)  2.108398  1.080936  2.118136  2.591288  3.886436  4.449007
   H ( 13)  6.725548  5.885344  4.449005  3.886437  2.591289  2.118133
   H ( 14)  5.859416  5.625966  4.455078  4.785208  4.009421  2.720173
   H ( 15)  7.443767  6.995378  5.664305  5.610842  4.508028  3.424019
             C (  7)   C (  8)   S (  9)   H ( 10)   H ( 11)   H ( 12)
   C (  8)  1.328742
   S (  9)  2.825022  3.189306
   H ( 10)  6.995386  7.443767  4.263216
   H ( 11)  5.625979  5.859424  2.801020  1.834127
   H ( 12)  5.885344  6.725539  3.761982  2.460058  3.073096
   H ( 13)  1.080939  2.108399  3.761977  7.780092  6.538492  6.399762
   H ( 14)  2.105537  1.078185  2.801002  6.904190  5.204574  6.538478
   H ( 15)  2.101790  1.075583  4.263202  8.512498  6.904197  7.780083
             H ( 13)   H ( 14)
   H ( 14)  3.073106
   H ( 15)  2.460058  1.834136
 
 A cutoff of  1.0D-08 yielded    904 shell pairs
 There are      9550 function pairs
 Smallest overlap matrix eigenvalue = 1.58E-03

 Scale SEOQF with 1.000000e-01/1.000000e-01/1.000000e+00

 Standard Electronic Orientation quadrupole field applied
 Nucleus-field energy     =     0.0000000160 hartrees
 Guess from superposition of atomic densities
 Warning:  Energy on first SCF cycle will be non-variational
 SAD guess density has 72.000000 electrons

 -----------------------------------------------------------------------
  General SCF calculation program by
  Eric Jon Sundstrom, Paul Horn, Yuezhi Mao, Dmitri Zuev, Alec White,
  David Stuck, Shaama M.S., Shane Yost, Joonho Lee, David Small,
  Daniel Levine, Susi Lehtola, Hugh Burton, Evgeny Epifanovsky,
  Bang C. Huynh
 -----------------------------------------------------------------------
 Exchange:     0.2000 Hartree-Fock + 0.0800 Slater + 0.7200 B88
 Correlation:  0.1900 VWN1RPA + 0.8100 LYP
 Using SG-1 standard quadrature grid
 A restricted SCF calculation will be
 performed using DIIS
 SCF converges when DIIS error is below 1.0e-05
 ---------------------------------------
  Cycle       Energy         DIIS error
 ---------------------------------------
    1    -741.9918635699      6.62e-02  
    2    -739.7390829874      6.47e-03  
    3    -739.5745679792      9.86e-03  
    4    -739.8378332747      3.31e-03  
    5    -739.8684456392      7.21e-04  
    6    -739.8696533571      3.52e-04  
    7    -739.8700224301      1.21e-04  
    8    -739.8700672688      1.80e-05  
    9    -739.8700681189      4.82e-06  Convergence criterion met
 ---------------------------------------
 SCF time:   CPU 13.44s  wall 13.00s 
 SCF   energy in the final basis set =     -739.8700681189
 Total energy in the final basis set =     -739.8700681189

 Q-Chem warning in module 0, line  198:

 OriOrb: Failure to resolve orbital degeneracies.


 Q-Chem warning in module 0, line  198:

 OriOrb: Failure to resolve orbital degeneracies.

 
 --------------------------------------------------------------
 
                    Orbital Energies (a.u.)
 --------------------------------------------------------------
 
 Alpha MOs
 -- Occupied --
-88.9205 -14.3632 -14.3629 -10.2624 -10.2624 -10.2139 -10.2139 -10.2051
-10.2051  -7.9830  -5.9463  -5.9436  -5.9401  -1.0534  -0.8600  -0.8361
 -0.7747  -0.7742  -0.6693  -0.6209  -0.5758  -0.5626  -0.5111  -0.4686
 -0.4539  -0.4515  -0.4459  -0.4178  -0.3937  -0.3765  -0.3516  -0.3148
 -0.3096  -0.2823  -0.2556  -0.2388
 -- Virtual --
 -0.0780  -0.0155   0.0063   0.0618   0.0709   0.0836   0.1184   0.1190
  0.1465   0.1571   0.1896   0.1920   0.2216   0.2488   0.2660   0.3096
  0.3333   0.3387   0.3434   0.3462   0.4046   0.4412   0.4609   0.4925
  0.5100   0.5419   0.5609   0.5612   0.5626   0.6073   0.6077   0.6274
  0.6306   0.6597   0.6598   0.6766   0.6804   0.7522   0.7569   0.7713
  0.7938   0.7945   0.8416   0.8422   0.8441   0.8657   0.8679   0.8790
  0.8869   0.9074   0.9361   0.9566   0.9797   0.9944   1.0341   1.0824
  1.0854   1.0974   1.1198   1.1305   1.1821   1.2855   1.3455   1.3559
  1.3735   1.3840   1.3980   1.4107   1.4494   1.4594   1.6078   1.6119
  1.6915   1.6974   1.7040   1.7531   1.8475   1.8484   1.8883   1.9705
  1.9860   2.0266   2.0506   2.0601   2.1121   2.1354   2.1708   2.1796
  2.2910   2.3249   2.3545   2.3571   2.4152   2.4413   2.4621   2.4718
  2.5227   2.6077   2.6707   2.6940   2.7571   2.8918   2.9018   2.9827
  3.1085   3.2014   3.7566   3.9329   4.0727   4.0993   4.1523   4.1886
  4.1888   4.4098   4.4712
 --------------------------------------------------------------
 
          Ground-State Mulliken Net Atomic Charges

     Atom                 Charge (a.u.)
  ----------------------------------------
      1 C                    -0.352302
      2 C                    -0.066620
      3 C                     0.096763
      4 N                    -0.279814
      5 N                    -0.279815
      6 C                     0.096763
      7 C                    -0.066616
      8 C                    -0.352304
      9 S                     0.210142
     10 H                     0.162107
     11 H                     0.163845
     12 H                     0.170950
     13 H                     0.170950
     14 H                     0.163845
     15 H                     0.162106
  ----------------------------------------
  Sum of atomic charges =     0.000000

 -----------------------------------------------------------------
                    Cartesian Multipole Moments
 -----------------------------------------------------------------
    Charge (ESU x 10^10)
                 0.0000
    Dipole Moment (Debye)
         X      -0.0000      Y      -2.9849      Z       0.0003
       Tot       2.9849
    Quadrupole Moments (Debye-Ang)
        XX     -45.7405     XY      -0.0000     YY     -62.8961
        XZ      -0.0070     YZ       0.0023     ZZ     -61.5260
    Octopole Moments (Debye-Ang^2)
       XXX       0.0001    XXY      -6.0384    XYY       0.0001
       YYY     -19.2665    XXZ       0.0024    XYZ      -0.0518
       YYZ       0.0002    XZZ      -0.0001    YZZ       2.5912
       ZZZ       0.0003
    Hexadecapole Moments (Debye-Ang^3)
      XXXX   -1277.6894   XXXY      -0.0003   XXYY    -295.8151
      XYYY      -0.0001   YYYY    -441.5389   XXXZ      -0.1470
      XXYZ       0.0146   XYYZ       0.0380   YYYZ       0.0079
      XXZZ    -288.8460   XYZZ      -0.0000   YYZZ     -82.4915
      XZZZ      -0.0109   YZZZ       0.0001   ZZZZ     -64.5907
 -----------------------------------------------------------------
Archival summary:
1\1\nia1977.scinet.local\SP\ProcedureUnspecified\6-31G*\1266\rhickman\MonFeb714:35:082022MonFeb714:35:082022\0\\#,ProcedureUnspecified,6-31G*,\\0,1\S\C,1,1.76066\N,2,1.29483,1,112.545\N,3,1.31093,2,114.67,1,0.0132803,0\C,4,1.29483,3,114.67,2,-0.0169805,0\C,2,1.43634,1,123.856,3,-180,0\H,6,1.08094,2,113.839,1,179.818,0\C,6,1.32874,2,124.417,1,-0.204444,0\H,8,1.07558,6,121.538,2,-179.99,0\H,8,1.07819,6,121.691,2,0.00121328,0\C,5,1.43634,4,123.598,3,-179.985,0\H,11,1.08094,5,113.839,4,-0.140764,0\C,11,1.32875,5,124.417,4,179.843,0\H,13,1.07558,11,121.538,5,-179.992,0\H,13,1.07818,11,121.691,5,-0.0025521,0\\\@

 Total job time:  15.04s(wall), 14.16s(cpu) 
 Mon Feb  7 14:35:08 2022

        *************************************************************
        *                                                           *
        *  Thank you very much for using Q-Chem.  Have a nice day.  *
        *                                                           *
        *************************************************************


