26
 energy: -36.033261596904 gnorm: 0.000080214521 xtb: 6.4.1 (23d549d)
C        -4.61570444610000    1.20472829660000    0.07587506030000
C        -4.00325921590000    0.03035273080000   -0.02163037790000
C        -2.56546872510000   -0.20713727950000   -0.01741479900000
C        -2.10757226760000   -1.54625925140000   -0.00440538300000
C        -0.77690088450000   -1.84265362800000    0.00497175650000
C         0.19240316970000   -0.81622168080000   -0.00189085840000
C         1.57185339090000   -1.08279099370000    0.00768117060000
C         2.50886298110000   -0.07063183230000    0.00014538540000
C         3.92413736310000   -0.41385187870000    0.01446821850000
C         4.95041985190000    0.42901995220000    0.03340414570000
C         2.05159225110000    1.26837778650000   -0.02133878430000
C         0.71993999060000    1.55796483220000   -0.03208355120000
C        -0.25188606080000    0.53225667560000   -0.02103214990000
C        -1.62955609960000    0.80535678170000   -0.02866167660000
H        -5.68969281950000    1.27812044050000    0.06568902850000
H        -4.08217543050000    2.13459555510000    0.17332971050000
H        -4.60603377580000   -0.86632276210000   -0.10551493900000
H        -2.83836339660000   -2.34315378970000    0.00139867120000
H        -0.44415898970000   -2.87114446590000    0.01699541290000
H         1.89588850590000   -2.11499339890000    0.02275887070000
H         4.12460370310000   -1.47887985560000    0.01158512790000
H         4.83058546200000    1.49873058790000    0.04012091250000
H         5.96600553550000    0.07176421730000    0.04392626150000
H         2.77144753980000    2.07192533760000   -0.03070629490000
H         0.38539270860000    2.58595349360000   -0.04889651650000
H        -1.94242359970000    1.83868319000000   -0.04873451380000
