
Running Job 1 of 1 tidas/B035/conf-1/spe_input.inp
qchem tidas/B035/conf-1/spe_input.inp_247502.0 /home/a/aspuru/seifridm/acdc_laser/descriptor_computation/qchem247502/ 0
/gpfs/fs1/scinet/niagara/software/commercial/qc54/exe/qcprog.exe_s tidas/B035/conf-1/spe_input.inp_247502.0 /home/a/aspuru/seifridm/acdc_laser/descriptor_computation/qchem247502/
                  Welcome to Q-Chem
     A Quantum Leap Into The Future Of Chemistry


 Q-Chem 5.4, Q-Chem, Inc., Pleasanton, CA (2021)

 License issued to: SRG Alan Aspuru-Guzik, University of Toronto

 E. Epifanovsky,  A. T. B. Gilbert,  Xintian Feng,  Joonho Lee,  Yuezhi Mao,  
 N. Mardirossian,  P. Pokhilko,  A. White,  M. Wormit,  M. P. Coons,  
 A. L. Dempwolff,  Zhengting Gan,  D. Hait,  P. R. Horn,  L. D. Jacobson,  
 I. Kaliman,  J. Kussmann,  A. W. Lange,  Ka Un Lao,  D. S. Levine,  Jie Liu,  
 S. C. McKenzie,  A. F. Morrison,  K. Nanda,  F. Plasser,  D. R. Rehn,  
 M. L. Vidal,  Zhi-Qiang You,  Ying Zhu,  B. Alam,  B. Albrecht,  
 A. Aldossary,  E. Alguire,  J. H. Andersen,  D. Barton,  K. Begam,  A. Behn,  
 Y. A. Bernard,  E. J. Berquist,  H. Burton,  A. Carreras,  K. Carter-Fenk,  
 Romit Chakraborty,  A. D. Chien,  K. D. Closser,  V. Cofer-Shabica,  
 S. Dasgupta,  Jia Deng,  M. de Wergifosse,  M. Diedenhofen,  Hainam Do,  
 S. Ehlert,  Po-Tung Fang,  S. Fatehi,  Qingguo Feng,  T. Friedhoff,  
 J. Gayvert,  Qinghui Ge,  G. Gidofalvi,  M. Goldey,  J. Gomes,  
 C. Gonzalez-Espinoza,  S. Gulania,  A. Gunina,  M. W. D. Hanson-Heine,  
 P. H. P. Harbach,  A. W. Hauser,  M. F. Herbst,  M. Hernandez Vera,  
 M. Hodecker,  Z. C. Holden,  S. Houck,  Xunkun Huang,  Kerwin Hui,  
 B. C. Huynh,  M. Ivanov,  Hyunjun Ji,  Hanjie Jiang,  B. Kaduk,  S. Kaehler,  
 K. Khistyaev,  Jaehoon Kim,  P. Klunzinger,  Z. Koczor-Benda,  
 Joong Hoon Koh,  D. Kosenkov,  L. Koulias,  T. Kowalczyk,  C. M. Krauter,  
 K. Kue,  A. Kunitsa,  T. Kus,  A. Landau,  K. V. Lawler,  D. Lefrancois,  
 S. Lehtola,  Rain Li,  Yi-Pei Li,  Jiashu Liang,  M. Liebenthal,  
 Hung-Hsuan Lin,  You-Sheng Lin,  Fenglai Liu,  Kuan-Yu Liu,  
 M. Loipersberger,  A. Luenser,  A. Manjanath,  P. Manohar,  E. Mansoor,  
 S. F. Manzer,  Shan-Ping Mao,  A. V. Marenich,  T. Markovich,  S. Mason,  
 S. A. Maurer,  P. F. McLaughlin,  M. F. S. J. Menger,  J.-M. Mewes,  
 S. A. Mewes,  P. Morgante,  J. W. Mullinax,  K. J. Oosterbaan,  G. Paran,  
 Alexander C. Paul,  Suranjan K. Paul,  F. Pavosevic,  Zheng Pei,  S. Prager,  
 E. I. Proynov,  E. Ramos,  B. Rana,  A. E. Rask,  A. Rettig,  R. M. Richard,  
 F. Rob,  E. Rossomme,  T. Scheele,  M. Scheurer,  M. Schneider,  
 N. Sergueev,  S. M. Sharada,  W. Skomorowski,  D. W. Small,  C. J. Stein,  
 Yu-Chuan Su,  E. J. Sundstrom,  Zhen Tao,  J. Thirman,  T. Tsuchimochi,  
 N. M. Tubman,  S. P. Veccham,  O. Vydrov,  J. Wenzel,  J. Witte,  A. Yamada,  
 Kun Yao,  S. Yeganeh,  S. R. Yost,  A. Zech,  Igor Ying Zhang,  Xing Zhang,  
 Yu Zhang,  D. Zuev,  A. Aspuru-Guzik,  A. T. Bell,  N. A. Besley,  
 K. B. Bravaya,  B. R. Brooks,  D. Casanova,  Jeng-Da Chai,  S. Coriani,  
 C. J. Cramer,  A. E. DePrince, III,  R. A. DiStasio Jr.,  A. Dreuw,  
 B. D. Dunietz,  T. R. Furlani,  W. A. Goddard III,  S. Grimme,  
 S. Hammes-Schiffer,  T. Head-Gordon,  W. J. Hehre,  Chao-Ping Hsu,  
 T.-C. Jagau,  Yousung Jung,  A. Klamt,  Jing Kong,  D. S. Lambrecht,  
 WanZhen Liang,  N. J. Mayhall,  C. W. McCurdy,  J. B. Neaton,  T. Neudecker,  
 C. Ochsenfeld,  J. A. Parkhill,  R. Peverati,  V. A. Rassolov,  Yihan Shao,  
 L. V. Slipchenko,  R. P. Steele,  J. E. Subotnik,  A. J. W. Thom,  
 A. Tkatchenko,  D. G. Truhlar,  T. Van Voorhis,  T. A. Wesolowski,  
 K. B. Whaley,  H. L. Woodcock III,  P. M. Zimmerman,  S. Faraji,  
 P. M. W. Gill,  M. Head-Gordon,  J. M. Herbert,  A. I. Krylov

 Additional authors since Version 5.4.0: 
 Chandrima Chakravarty,  L. Cunha,  R. Kang,  Yongbin Kim,  S. Kotaru,  
 Shaozhi Li,  Xiangyuan Li,  F. Matz,  A. Molle,  V. Parravicini,  
 Haisheng Ren,  Hengyuan Shen,  Yingli Su,  Hung-Yi Tsai,  C. Utku,  
 Fang Wang,  Jeff Yang,  F. Zeller

 Contributors to earlier versions of Q-Chem not listed above: 
 R. D. Adamson,  B. Austin,  R. Baer,  J. Baker,  G. J. O. Beran,  
 K. Brandhorst,  S. T. Brown,  E. F. C. Byrd,  Arup K. Chakraborty,  
 G. K. L. Chan,  Chun-Min Chang,  Yunqing Chen,  C.-L. Cheng,  
 Siu Hung Chien,  D. M. Chipman,  D. L. Crittenden,  H. Dachsel,  
 R. J. Doerksen,  A. D. Dutoi,  R. G. Edgar,  J. Fosso-Tande,  
 L. Fusti-Molnar,  D. Ghosh,  A. Ghysels,  A. Golubeva-Zadorozhnaya,  
 J. Gonthier,  M. S. Gordon,  S. R. Gwaltney,  G. Hawkins,  J. E. Herr,  
 A. Heyden,  S. Hirata,  E. G. Hohenstein,  G. Kedziora,  F. J. Keil,  
 C. Kelley,  Jihan Kim,  R. A. King,  R. Z. Khaliullin,  P. P. Korambath,  
 W. Kurlancheek,  A. Laurent,  A. M. Lee,  M. S. Lee,  S. V. Levchenko,  
 Ching Yeh Lin,  D. Liotard,  E. Livshits,  R. C. Lochan,  I. Lotan,  
 L. A. Martinez-Martinez,  P. E. Maslen,  N. Nair,  D. P. O'Neill,  
 D. Neuhauser,  E. Neuscamman,  C. M. Oana,  R. Olivares-Amaya,  R. Olson,  
 T. M. Perrine,  B. Peters,  P. A. Pieniazek,  A. Prociuk,  Y. M. Rhee,  
 J. Ritchie,  M. A. Rohrdanz,  E. Rosta,  N. J. Russ,  H. F. Schaefer III,  
 M. W. Schmidt,  N. E. Schultz,  S. Sharma,  N. Shenvi,  C. D. Sherrill,  
 A. C. Simmonett,  A. Sodt,  T. Stein,  D. Stuck,  K. S. Thanthiriwatte,  
 V. Vanovschi,  L. Vogt,  Tao Wang,  A. Warshel,  M. A. Watson,  
 C. F. Williams,  Q. Wu,  X. Xu,  Jun Yang,  W. Zhang,  Yan Zhao

   Please cite Q-Chem as follows:
  "Software for the frontiers of quantum chemistry:
   An overview of developments in the Q-Chem 5 package"
   J. Chem. Phys. 155, 084801 (2021)
   https://doi.org/10.1063/5.0055522 (open access)

 Q-Chem 5.4.2 for Intel X86 EM64T Linux

 Parts of Q-Chem use Armadillo 9.900.5 (Nocturnal Misbehaviour).
 http://arma.sourceforge.net/

 Q-Chem begins on Fri Aug 12 12:44:32 2022  

 Host: 
0

     Scratch files written to /home/a/aspuru/seifridm/acdc_laser/descriptor_computation/qchem247502//
 Dec1321 |scratch|qcdevops|jenkins|workspace|build_RNUM 6959   
 Processing $rem in /gpfs/fs1/scinet/niagara/software/commercial/qc54/config/preferences:
 Processing $rem in /home/a/aspuru/seifridm/.qchemrc:

 Checking the input file for inconsistencies... 	...done.

--------------------------------------------------------------
User input:
--------------------------------------------------------------
$molecule
0 1
C           -1.33269414490000       -3.82139742260000       -0.33708752620000
C           -1.30799537430000       -2.58025359910000        0.13092889180000
C           -0.16347801660000       -1.67594990440000        0.02755814080000
C            1.13563845900000       -2.18046692990000        0.09779775800000
C            2.23467329840000       -1.35477218670000        0.05721258860000
C            2.06951081940000        0.02776459450000       -0.05886177610000
O            3.20997953340000        0.76462406090000       -0.08732570550000
C            3.10782989590000        2.16654476260000       -0.17214183900000
C            0.78592264430000        0.54857955570000       -0.13984046140000
C           -0.33010519510000       -0.28649536480000       -0.09472650740000
C           -1.67157385280000        0.27256818870000       -0.23427319880000
C           -2.06196336210000        1.49454488940000        0.09093304820000
F           -1.33447268910000        2.46348357730000        0.63913566780000
F           -3.30714144560000        1.93792600070000       -0.08060608560000
H           -2.19699410130000       -4.45200373920000       -0.21831511080000
H           -0.50015734940000       -4.24945811640000       -0.86959325800000
H           -2.17945862790000       -2.18846695210000        0.63918858870000
H            1.27745174840000       -3.24405712230000        0.21251618580000
H            3.23581432530000       -1.75029479550000        0.11954889120000
H            4.13101210970000        2.53753865330000       -0.14302221170000
H            2.54757341590000        2.58065404830000        0.67177175100000
H            2.63745746780000        2.47896946090000       -1.10993998770000
H            0.63839300380000        1.60833766410000       -0.26020400830000
H           -2.43840823790000       -0.36555113910000       -0.64631777450000
$end

$rem
BASIS = 6-31G*
GUI = 2
METHOD = B3LYP
PRINT_ORBITALS false
MOLDEN_FORMAT false
$end
--------------------------------------------------------------
 ----------------------------------------------------------------
             Standard Nuclear Orientation (Angstroms)
    I     Atom           X                Y                Z
 ----------------------------------------------------------------
    1      C      -1.9320526367    -3.5276716569    -0.2107416738
    2      C      -1.7284154975    -2.2863270419     0.2107827616
    3      C      -0.4605905334    -1.5669390146     0.0947164318
    4      C       0.7477355419    -2.2556606649     0.2077882411
    5      C       1.9580691162    -1.6046883662     0.1565608204
    6      C       2.0024741617    -0.2186889818    -0.0143009721
    7      O       3.2403693844     0.3388322282    -0.0493220241
    8      C       3.3495727794     1.7358681662    -0.1885167993
    9      C       0.8120685948     0.4834019588    -0.1384270053
   10      C      -0.4165230894    -0.1741339254    -0.0826366438
   11      C      -1.6577094385     0.5720169762    -0.2677819232
   12      C      -1.8655330870     1.8504032359     0.0041151737
   13      F      -1.0086454329     2.7215638726     0.5289329188
   14      F      -3.0283654654     2.4666685431    -0.2068797897
   15      H      -2.8821852352    -4.0176369497    -0.0843783682
   16      H      -1.1660089807    -4.0955341556    -0.7113664111
   17      H      -2.5380509176    -1.7494893956     0.6878244021
   18      H       0.7278395917    -3.3230940045     0.3649048881
   19      H       2.8881369254    -2.1417580845     0.2521500057
   20      H       4.4161970295     1.9515958916    -0.1544503962
   21      H       2.8467157121     2.2618959301     0.6287919140
   22      H       2.9429837417     2.0771069110    -1.1458914671
   23      H       0.8258124718     1.5476732476    -0.3011456464
   24      H      -2.5058727977     0.0390069311    -0.6696913545
 ----------------------------------------------------------------
 Molecular Point Group                 C1    NOp =  1
 Largest Abelian Subgroup              C1    NOp =  1
 Nuclear Repulsion Energy =         850.47137453 hartrees
 There are       51 alpha and       51 beta electrons
 Requested basis set is 6-31G(d)
 There are 76 shells and 230 basis functions

 Total QAlloc Memory Limit   8000 MB
 Mega-Array Size       188 MB
 MEM_STATIC part       192 MB
 A cutoff of  1.0D-08 yielded   1880 shell pairs
 There are     18440 function pairs
 Smallest overlap matrix eigenvalue = 3.41E-04

 Scale SEOQF with 1.000000e-01/1.000000e-01/1.000000e+00

 Standard Electronic Orientation quadrupole field applied
 Nucleus-field energy     =     0.0000000356 hartrees
 Guess from superposition of atomic densities
 Warning:  Energy on first SCF cycle will be non-variational
 SAD guess density has 102.000000 electrons

 -----------------------------------------------------------------------
  General SCF calculation program by
  Eric Jon Sundstrom, Paul Horn, Yuezhi Mao, Dmitri Zuev, Alec White,
  David Stuck, Shaama M.S., Shane Yost, Joonho Lee, David Small,
  Daniel Levine, Susi Lehtola, Hugh Burton, Evgeny Epifanovsky,
  Bang C. Huynh
 -----------------------------------------------------------------------
 Exchange:     0.2000 Hartree-Fock + 0.0800 Slater + 0.7200 B88
 Correlation:  0.1900 VWN1RPA + 0.8100 LYP
 Using SG-1 standard quadrature grid
 A restricted SCF calculation will be
 performed using DIIS
 SCF converges when DIIS error is below 1.0e-05
 ---------------------------------------
  Cycle       Energy         DIIS error
 ---------------------------------------
    1    -703.1438163709      5.26e-02  
    2    -699.8043080978      5.83e-03  
    3    -699.6168492720      7.83e-03  
    4    -700.0170233157      1.59e-03  
    5    -700.0327567147      5.55e-04  
    6    -700.0342719711      2.82e-04  
    7    -700.0348165959      5.78e-05  
    8    -700.0348361714      1.98e-05  
    9    -700.0348390688      5.54e-06  Convergence criterion met
 ---------------------------------------
 SCF time:   CPU 50.36s  wall 53.00s 
 SCF   energy in the final basis set =     -700.0348390688
 Total energy in the final basis set =     -700.0348390688
 
 --------------------------------------------------------------
 
                    Orbital Energies (a.u.)
 --------------------------------------------------------------
 
 Alpha MOs
 -- Occupied --
-24.7434 -24.7345 -19.1796 -10.3569 -10.2465 -10.2408 -10.2061 -10.2016
-10.1899 -10.1889 -10.1870 -10.1848 -10.1819 -10.1786  -1.2846  -1.2240
 -1.0702  -0.8694  -0.8071  -0.7922  -0.7429  -0.7361  -0.6972  -0.6454
 -0.6166  -0.6063  -0.5749  -0.5575  -0.5393  -0.5215  -0.5158  -0.4866
 -0.4785  -0.4725  -0.4473  -0.4432  -0.4383  -0.4342  -0.4321  -0.4122
 -0.4059  -0.3986  -0.3827  -0.3583  -0.3490  -0.3354  -0.3260  -0.2931
 -0.2722  -0.2331  -0.2054
 -- Virtual --
 -0.0321  -0.0098   0.0526   0.0618   0.0987   0.1092   0.1147   0.1324
  0.1381   0.1504   0.1520   0.1595   0.1675   0.1712   0.1869   0.2007
  0.2055   0.2221   0.2652   0.2848   0.3050   0.3308   0.3550   0.3644
  0.3765   0.4242   0.4294   0.4699   0.4880   0.5054   0.5100   0.5190
  0.5306   0.5472   0.5525   0.5649   0.5674   0.5737   0.5776   0.5861
  0.5976   0.6103   0.6212   0.6267   0.6437   0.6539   0.6724   0.6897
  0.6962   0.7130   0.7296   0.7437   0.7850   0.7958   0.8226   0.8398
  0.8458   0.8573   0.8615   0.8672   0.8726   0.8879   0.9220   0.9340
  0.9387   0.9616   0.9675   0.9789   0.9862   1.0203   1.0346   1.0511
  1.0694   1.0823   1.1063   1.1188   1.1502   1.1747   1.1890   1.1924
  1.2115   1.2334   1.2428   1.2606   1.2843   1.3090   1.3491   1.3712
  1.3728   1.3882   1.4071   1.4240   1.4433   1.4472   1.4706   1.4880
  1.4976   1.5236   1.5420   1.5637   1.6441   1.6537   1.6851   1.6968
  1.7207   1.7637   1.7807   1.8054   1.8125   1.8367   1.8489   1.8582
  1.8684   1.8828   1.8966   1.9414   1.9573   1.9697   1.9820   2.0035
  2.0047   2.0220   2.0400   2.0491   2.0634   2.0817   2.1009   2.1147
  2.1325   2.1536   2.1736   2.2134   2.2315   2.2440   2.2632   2.2783
  2.3126   2.3213   2.3303   2.3632   2.3761   2.4438   2.4760   2.5235
  2.5315   2.5473   2.5725   2.6145   2.6344   2.6612   2.6818   2.6966
  2.7258   2.7708   2.8023   2.8368   2.9064   2.9653   3.0057   3.0289
  3.0680   3.1197   3.2076   3.3165   3.4839   4.0574   4.0916   4.1044
  4.1216   4.1362   4.2072   4.2584   4.2902   4.3808   4.4251   4.5431
  4.7630   4.8241   5.2422
 --------------------------------------------------------------
 
          Ground-State Mulliken Net Atomic Charges

     Atom                 Charge (a.u.)
  ----------------------------------------
      1 C                    -0.341712
      2 C                    -0.133826
      3 C                     0.094536
      4 C                    -0.189395
      5 C                    -0.170527
      6 C                     0.386011
      7 O                    -0.506035
      8 C                    -0.216039
      9 C                    -0.274977
     10 C                     0.126997
     11 C                    -0.319698
     12 C                     0.552557
     13 F                    -0.237731
     14 F                    -0.248296
     15 H                     0.141775
     16 H                     0.143774
     17 H                     0.137178
     18 H                     0.132909
     19 H                     0.136249
     20 H                     0.170000
     21 H                     0.155169
     22 H                     0.152631
     23 H                     0.136793
     24 H                     0.171659
  ----------------------------------------
  Sum of atomic charges =     0.000000

 -----------------------------------------------------------------
                    Cartesian Multipole Moments
 -----------------------------------------------------------------
    Charge (ESU x 10^10)
                 0.0000
    Dipole Moment (Debye)
         X       0.4250      Y       0.3592      Z      -0.2981
       Tot       0.6313
    Quadrupole Moments (Debye-Ang)
        XX     -75.9317     XY       6.6126     YY     -74.2949
        XZ      -0.6154     YZ      -0.5845     ZZ     -81.4196
    Octopole Moments (Debye-Ang^2)
       XXX     -10.6373    XXY      19.1567    XYY      13.5250
       YYY      26.7958    XXZ       1.5014    XYZ      -2.0493
       YYZ      -3.5384    XZZ      -5.5850    YZZ      20.8976
       ZZZ       2.4122
    Hexadecapole Moments (Debye-Ang^3)
      XXXX   -1970.4765   XXXY      28.8247   XXYY    -590.6570
      XYYY     -32.1167   YYYY   -1766.3359   XXXZ      -9.7190
      XXYZ      -4.8549   XYYZ       1.6992   YYYZ      17.9617
      XXZZ    -360.0137   XYZZ     -27.0482   YYZZ    -333.2035
      XZZZ      -2.7930   YZZZ       9.0769   ZZZZ    -111.3702
 -----------------------------------------------------------------
 Total job time:  54.18s(wall), 50.82s(cpu) 
 Fri Aug 12 12:45:27 2022

        *************************************************************
        *                                                           *
        *  Thank you very much for using Q-Chem.  Have a nice day.  *
        *                                                           *
        *************************************************************


