
Running Job 1 of 1 fragments/B027/conf-2/spe_input.inp
qchem fragments/B027/conf-2/spe_input.inp_250100.0 /gpfs/fs0/scratch/a/aspuru/rhickman/descriptor_computation/qchem250100/ 0
/scinet/niagara/software/commercial/qc52/exe/qcprog.exe_s fragments/B027/conf-2/spe_input.inp_250100.0 /gpfs/fs0/scratch/a/aspuru/rhickman/descriptor_computation/qchem250100/
                  Welcome to Q-Chem
     A Quantum Leap Into The Future Of Chemistry


 Q-Chem 5.2, Q-Chem, Inc., Pleasanton, CA (2019)

 License issued to: SRG Alan Aspuru-Guzik, University of Toronto

 Yihan Shao,  Zhengting Gan,  E. Epifanovsky,  A. T. B. Gilbert,  M. Wormit,  
 J. Kussmann,  A. W. Lange,  A. Behn,  Jia Deng,  Xintian Feng,  D. Ghosh,  
 M. Goldey,  P. R. Horn,  L. D. Jacobson,  I. Kaliman,  T. Kus,  A. Landau,  
 Jie Liu,  E. I. Proynov,  R. M. Richard,  R. P. Steele,  E. J. Sundstrom,  
 H. L. Woodcock III,  P. M. Zimmerman,  D. Zuev,  B. Albrecht,  E. Alguire,  
 S. A. Baeppler,  D. Barton,  Z. Benda,  Y. A. Bernard,  E. J. Berquist,  
 K. B. Bravaya,  H. Burton,  D. Casanova,  Chun-Min Chang,  Yunqing Chen,  
 A. Chien,  K. D. Closser,  M. P. Coons,  S. Coriani,  S. Dasgupta,  
 A. L. Dempwolff,  M. Diedenhofen,  Hainam Do,  R. G. Edgar,  Po-Tung Fang,  
 S. Faraji,  S. Fatehi,  Qingguo Feng,  K. D. Fenk,  J. Fosso-Tande,  
 J. Gayvert,  Qinghui Ge,  A. Ghysels,  G. Gidofalvi,  J. Gomes,  
 J. Gonthier,  A. Gunina,  D. Hait,  M. W. D. Hanson-Heine,  
 P. H. P. Harbach,  A. W. Hauser,  M. F. Herbst,  J. E. Herr,  
 E. G. Hohenstein,  Z. C. Holden,  Kerwin Hui,  B. C. Huynh,  T.-C. Jagau,  
 Hyunjun Ji,  B. Kaduk,  K. Khistyaev,  Jaehoon Kim,  P. Klunzinger,  K. Koh,  
 D. Kosenkov,  L. Koulias,  T. Kowalczyk,  C. M. Krauter,  A. Kunitsa,  
 Ka Un Lao,  A. Laurent,  K. V. Lawler,  Joonho Lee,  D. Lefrancois,  
 S. Lehtola,  D. S. Levine,  Yi-Pei Li,  You-Sheng Lin,  Fenglai Liu,  
 E. Livshits,  A. Luenser,  P. Manohar,  E. Mansoor,  S. F. Manzer,  
 Shan-Ping Mao,  Yuezhi Mao,  N. Mardirossian,  A. V. Marenich,  
 T. Markovich,  L. A. Martinez-Martinez,  S. A. Maurer,  N. J. Mayhall,  
 S. C. McKenzie,  J.-M. Mewes,  P. Morgante,  A. F. Morrison,  
 J. W. Mullinax,  K. Nanda,  T. S. Nguyen-Beck,  R. Olivares-Amaya,  
 J. A. Parkhill,  Zheng Pei,  T. M. Perrine,  F. Plasser,  P. Pokhilko,  
 S. Prager,  A. Prociuk,  E. Ramos,  D. R. Rehn,  F. Rob,  M. Scheurer,  
 M. Schneider,  N. Sergueev,  S. M. Sharada,  S. Sharma,  D. W. Small,  
 T. Stauch,  T. Stein,  Yu-Chuan Su,  A. J. W. Thom,  A. Tkatchenko,  
 T. Tsuchimochi,  N. M. Tubman,  L. Vogt,  M. L. Vidal,  O. Vydrov,  
 M. A. Watson,  J. Wenzel,  M. de Wergifosse,  T. A. Wesolowski,  A. White,  
 J. Witte,  A. Yamada,  Jun Yang,  K. Yao,  S. Yeganeh,  S. R. Yost,  
 Zhi-Qiang You,  A. Zech,  Igor Ying Zhang,  Xing Zhang,  Yan Zhao,  
 Ying Zhu,  B. R. Brooks,  G. K. L. Chan,  C. J. Cramer,  M. S. Gordon,  
 W. J. Hehre,  A. Klamt,  M. W. Schmidt,  C. D. Sherrill,  D. G. Truhlar,  
 A. Aspuru-Guzik,  R. Baer,  A. T. Bell,  N. A. Besley,  Jeng-Da Chai,  
 A. E. DePrince, III,  R. A. DiStasio Jr.,  A. Dreuw,  B. D. Dunietz,  
 T. R. Furlani,  Chao-Ping Hsu,  Yousung Jung,  Jing Kong,  D. S. Lambrecht,  
 WanZhen Liang,  C. Ochsenfeld,  V. A. Rassolov,  L. V. Slipchenko,  
 J. E. Subotnik,  T. Van Voorhis,  J. M. Herbert,  A. I. Krylov,  
 P. M. W. Gill,  M. Head-Gordon

 Contributors to earlier versions of Q-Chem not listed above: 
 R. D. Adamson,  B. Austin,  J. Baker,  G. J. O. Beran,  K. Brandhorst,  
 S. T. Brown,  E. F. C. Byrd,  A. K. Chakraborty,  C.-L. Cheng,  
 Siu Hung Chien,  D. M. Chipman,  D. L. Crittenden,  H. Dachsel,  
 R. J. Doerksen,  A. D. Dutoi,  L. Fusti-Molnar,  W. A. Goddard III,  
 A. Golubeva-Zadorozhnaya,  S. R. Gwaltney,  G. Hawkins,  A. Heyden,  
 S. Hirata,  G. Kedziora,  F. J. Keil,  C. Kelley,  Jihan Kim,  R. A. King,  
 R. Z. Khaliullin,  P. P. Korambath,  W. Kurlancheek,  A. M. Lee,  M. S. Lee,  
 S. V. Levchenko,  Ching Yeh Lin,  D. Liotard,  R. C. Lochan,  I. Lotan,  
 P. E. Maslen,  N. Nair,  D. P. O'Neill,  D. Neuhauser,  E. Neuscamman,  
 C. M. Oana,  R. Olson,  B. Peters,  R. Peverati,  P. A. Pieniazek,  
 Y. M. Rhee,  J. Ritchie,  M. A. Rohrdanz,  E. Rosta,  N. J. Russ,  
 H. F. Schaefer III,  N. E. Schultz,  N. Shenvi,  A. C. Simmonett,  A. Sodt,  
 D. Stuck,  K. S. Thanthiriwatte,  V. Vanovschi,  Tao Wang,  A. Warshel,  
 C. F. Williams,  Q. Wu,  X. Xu,  W. Zhang

 Please cite Q-Chem as follows:
 Y. Shao et al., Mol. Phys. 113, 184-215 (2015)
 DOI: 10.1080/00268976.2014.952696

 Q-Chem 5.2.1 for Intel X86 EM64T Linux

 Parts of Q-Chem use Armadillo 8.300.2 (Tropical Shenanigans).
 http://arma.sourceforge.net/

 Q-Chem begins on Mon Feb  7 08:26:49 2022  

Host: 
0

     Scratch files written to /gpfs/fs0/scratch/a/aspuru/rhickman/descriptor_computation/qchem250100//
 Jul1719 |scratch|qcdevops|jenkins|workspace|build_RNUM -1
Processing $rem in /scinet/niagara/software/commercial/qc52/config/preferences:
	 MEM_TOTAL  4000 
NAlpha2: 100
NElect   100
Mult     1

Checking the input file for inconsistencies... 	...done.

--------------------------------------------------------------
User input:
--------------------------------------------------------------
$molecule
0 1
C        -4.71556754250000   -2.03980237800000    0.10098072080000
C        -4.57576457860000   -0.72681959940000   -0.03348851460000
C        -3.32490840900000    0.02443593960000   -0.02701841450000
C        -3.37676380030000    1.41989515960000   -0.03096471660000
C        -2.21416400680000    2.16884883220000   -0.02008666140000
C        -0.98027085150000    1.54916214920000   -0.01063311260000
C        -0.89221554770000    0.15338304110000   -0.01293447800000
C         0.37008047850000   -0.55970713580000   -0.00901108810000
C         1.59939742810000   -0.02140344470000   -0.00121616480000
C         2.79416650670000   -0.82123127090000    0.00205024800000
C         4.01997648770000   -0.31003265060000    0.01029030750000
F         4.32152675730000    0.98495936940000    0.01660157340000
F         5.13946691030000   -1.02812598490000    0.01333856160000
C        -2.07483333800000   -0.58689189350000   -0.02089244200000
H        -5.68738542560000   -2.50255529650000    0.08720035990000
H        -3.88102212580000   -2.70636453930000    0.23550141570000
H        -5.46287125370000   -0.11606575870000   -0.15104002480000
H        -4.33645616250000    1.91664580330000   -0.03867161190000
H        -2.27170764030000    3.24765119510000   -0.02064157440000
H        -0.08485200180000    2.15007712810000   -0.00389745880000
H         0.28580538050000   -1.64006525750000   -0.01301064430000
H         1.74618573600000    1.04828252100000    0.00302682300000
H         2.70543996970000   -1.89662702520000   -0.00245047330000
H        -2.00932307620000   -1.66457889160000   -0.02968155830000
$end

$rem
BASIS = 6-31G*
GUI = 2
METHOD = B3LYP
PRINT_ORBITALS false
MOLDEN_FORMAT false
--------------------------------------------------------------
 ----------------------------------------------------------------
             Standard Nuclear Orientation (Angstroms)
    I     Atom           X                Y                Z
 ----------------------------------------------------------------
    1      C       4.5622245026    -2.0587284616    -0.0709741650
    2      C       4.4305988849    -0.7428561068     0.0417434618
    3      C       3.1843632779     0.0158564190     0.0238543881
    4      C       3.2447711506     1.4108432931     0.0045282494
    5      C       2.0867718469     2.1666388957    -0.0178063732
    6      C       0.8490965918     1.5544710238    -0.0158743321
    7      C       0.7524935977     0.1594906086     0.0097353167
    8      C      -0.5141508841    -0.5457995964     0.0187760429
    9      C      -1.7401536760    -0.0001597591     0.0030881646
   10      C      -2.9398032940    -0.7925777915     0.0141709476
   11      C      -4.1624656827    -0.2740677080    -0.0015138912
   12      F      -4.4560821518     1.0224677284    -0.0291175224
   13      F      -5.2863371133    -0.9852228406     0.0083613101
   14      C       1.9305608558    -0.5877991601     0.0289884431
   15      H       5.5312018645    -2.5271482473    -0.0503359406
   16      H       3.7234809038    -2.7222982456    -0.1936579129
   17      H       5.3215443613    -0.1356910489     0.1483437206
   18      H       4.2074959946     1.9017495556     0.0031337620
   19      H       2.1509244828     3.2449273569    -0.0352577185
   20      H      -0.0426298926     2.1606791071    -0.0318347268
   21      H      -0.4364926348    -1.6264388472     0.0406841605
   22      H      -1.8803895543     1.0701889231    -0.0188315164
   23      H      -2.8576628024    -1.8682744576     0.0364937043
   24      H       1.8584576340    -1.6647680252     0.0557708622
 ----------------------------------------------------------------
 Molecular Point Group                 C1    NOp =  1
 Largest Abelian Subgroup              C1    NOp =  1
 Nuclear Repulsion Energy =         764.36940102 hartrees
 There are       50 alpha and       50 beta electrons
 Requested basis set is 6-31G(d)
 There are 76 shells and 230 basis functions

 Total QAlloc Memory Limit   4000 MB
 Mega-Array Size       188 MB
 MEM_STATIC part       192 MB
 A cutoff of  1.0D-08 yielded   1739 shell pairs
 There are     16434 function pairs
 Smallest overlap matrix eigenvalue = 3.76E-04

 Scale SEOQF with 1.000000e-02/1.000000e-01/1.000000e+00

 Standard Electronic Orientation quadrupole field applied
 Nucleus-field energy     =     0.0000000148 hartrees
 Guess from superposition of atomic densities
 Warning:  Energy on first SCF cycle will be non-variational
 SAD guess density has 100.000000 electrons

 -----------------------------------------------------------------------
  General SCF calculation program by
  Eric Jon Sundstrom, Paul Horn, Yuezhi Mao, Dmitri Zuev, Alec White,
  David Stuck, Shaama M.S., Shane Yost, Joonho Lee, David Small,
  Daniel Levine, Susi Lehtola, Hugh Burton, Evgeny Epifanovsky,
  Bang C. Huynh
 -----------------------------------------------------------------------
 Exchange:     0.2000 Hartree-Fock + 0.0800 Slater + 0.7200 B88
 Correlation:  0.1900 VWN1RPA + 0.8100 LYP
 Using SG-1 standard quadrature grid
 A restricted SCF calculation will be
 performed using DIIS
 SCF converges when DIIS error is below 1.0e-05
 ---------------------------------------
  Cycle       Energy         DIIS error
 ---------------------------------------
    1    -666.0603858241      5.26e-02  
    2    -662.6710157454      5.92e-03  
    3    -662.4303760444      8.29e-03  
    4    -662.8950518563      1.84e-03  
    5    -662.9187553619      5.75e-04  
    6    -662.9203683246      3.35e-04  
    7    -662.9211264464      6.59e-05  
    8    -662.9211548586      2.38e-05  
    9    -662.9211586001      7.12e-06  Convergence criterion met
 ---------------------------------------
 SCF time:   CPU 32.42s  wall 33.00s 
 SCF   energy in the final basis set =     -662.9211586001
 Total energy in the final basis set =     -662.9211586001
 
 --------------------------------------------------------------
 
                    Orbital Energies (a.u.)
 --------------------------------------------------------------
 
 Alpha MOs
 -- Occupied --
-24.7413 -24.7372 -10.3567 -10.2040 -10.2000 -10.1981 -10.1957 -10.1931
-10.1909 -10.1890 -10.1880 -10.1874 -10.1872 -10.1808  -1.2843  -1.2251
 -0.8690  -0.8291  -0.7972  -0.7743  -0.7327  -0.7220  -0.6484  -0.6306
 -0.6123  -0.5858  -0.5719  -0.5395  -0.5364  -0.5185  -0.5072  -0.4807
 -0.4617  -0.4521  -0.4411  -0.4398  -0.4296  -0.4193  -0.4159  -0.4057
 -0.3846  -0.3749  -0.3729  -0.3430  -0.3409  -0.3360  -0.3015  -0.2708
 -0.2284  -0.2051
 -- Virtual --
 -0.0472  -0.0285   0.0284   0.0616   0.0920   0.0981   0.1020   0.1139
  0.1189   0.1339   0.1523   0.1548   0.1789   0.1886   0.1945   0.2093
  0.2138   0.2396   0.2703   0.2858   0.3055   0.3206   0.3429   0.3599
  0.3812   0.4187   0.4353   0.4457   0.4857   0.4991   0.5000   0.5128
  0.5422   0.5448   0.5567   0.5600   0.5634   0.5684   0.5744   0.5782
  0.5833   0.6002   0.6050   0.6111   0.6197   0.6215   0.6245   0.6313
  0.6483   0.6802   0.6860   0.6962   0.7159   0.7736   0.7920   0.8020
  0.8218   0.8273   0.8320   0.8482   0.8697   0.8756   0.8866   0.8961
  0.9017   0.9374   0.9471   0.9583   0.9765   0.9856   1.0130   1.0260
  1.0494   1.0706   1.0866   1.1151   1.1292   1.1557   1.1599   1.1805
  1.1831   1.1999   1.2289   1.2461   1.2601   1.2838   1.2890   1.3043
  1.3237   1.3481   1.3619   1.4000   1.4003   1.4434   1.4528   1.4612
  1.4735   1.4921   1.4955   1.5051   1.5201   1.5518   1.6059   1.6121
  1.6629   1.6773   1.7143   1.7793   1.7847   1.7856   1.7999   1.8320
  1.8342   1.8432   1.8762   1.8874   1.9205   1.9441   1.9492   1.9544
  1.9773   1.9843   1.9899   1.9966   2.0149   2.0344   2.0541   2.1205
  2.1291   2.1407   2.1596   2.1680   2.1782   2.2073   2.2424   2.2553
  2.2758   2.2886   2.3138   2.3257   2.3587   2.3896   2.4397   2.4898
  2.5249   2.5465   2.5582   2.5868   2.6214   2.6307   2.6345   2.6845
  2.6873   2.7367   2.8066   2.8452   2.8607   2.8892   2.9268   2.9861
  3.0375   3.0857   3.1534   3.2145   3.2694   3.4694   4.0775   4.0927
  4.0931   4.1140   4.1486   4.1546   4.2210   4.2487   4.3654   4.4134
  4.5164   4.7546   4.7781   5.2415
 --------------------------------------------------------------
 
          Ground-State Mulliken Net Atomic Charges

     Atom                 Charge (a.u.)
  ----------------------------------------
      1 C                    -0.350596
      2 C                    -0.114851
      3 C                     0.179719
      4 C                    -0.195395
      5 C                    -0.128710
      6 C                    -0.181280
      7 C                     0.187430
      8 C                    -0.195760
      9 C                    -0.109590
     10 C                    -0.226304
     11 C                     0.532475
     12 F                    -0.238294
     13 F                    -0.245028
     14 C                    -0.263702
     15 H                     0.144707
     16 H                     0.142839
     17 H                     0.127305
     18 H                     0.127635
     19 H                     0.130509
     20 H                     0.128481
     21 H                     0.122466
     22 H                     0.142190
     23 H                     0.159016
     24 H                     0.124739
  ----------------------------------------
  Sum of atomic charges =     0.000000

 -----------------------------------------------------------------
                    Cartesian Multipole Moments
 -----------------------------------------------------------------
    Charge (ESU x 10^10)
                 0.0000
    Dipole Moment (Debye)
         X       0.9401      Y      -0.2200      Z       0.0115
       Tot       0.9656
    Quadrupole Moments (Debye-Ang)
        XX     -79.7459     XY       1.4228     YY     -71.7889
        XZ       0.1606     YZ       0.0651     ZZ     -83.6532
    Octopole Moments (Debye-Ang^2)
       XXX      -3.5701    XXY       2.6149    XYY     -15.0090
       YYY       1.1212    XXZ       1.6403    XYZ       0.6814
       YYZ      -0.8425    XZZ     -37.2504    YZZ       0.6394
       ZZZ      -0.1911
    Hexadecapole Moments (Debye-Ang^3)
      XXXX   -4985.0154   XXXY      -2.0788   XXYY    -918.4974
      XYYY      10.8194   YYYY    -723.1124   XXXZ      10.8703
      XXYZ       2.4313   XYYZ      -2.9760   YYYZ       0.6040
      XXZZ    -884.6325   XYZZ       3.9061   YYZZ    -155.9648
      XZZZ       1.3763   YZZZ      -0.3640   ZZZZ     -82.2517
 -----------------------------------------------------------------
Archival summary:
1\1\nia0005.scinet.local\SP\ProcedureUnspecified\6-31G*\21210\rhickman\MonFeb708:27:222022MonFeb708:27:222022\0\\#,ProcedureUnspecified,6-31G*,\\0,1\F\C,1,1.32965\C,2,1.32816,1,125.747\H,3,1.07906,2,117.355,1,179.994,0\F,2,1.33001,1,109.569,3,179.994,0\C,3,1.43778,2,123.563,1,-0,0\H,6,1.07972,3,115.985,2,0.0263065,0\C,6,1.34203,3,122.552,2,-179.971,0\H,8,1.08365,6,118.109,3,-0.00397485,0\C,8,1.44979,6,126.889,3,-179.998,0\C,10,1.39523,8,118.493,6,-179.988,0\H,11,1.07971,10,118.568,8,-0.352164,0\C,11,1.39156,10,121.896,8,-179.905,0\C,13,1.39643,11,118.189,10,0.276474,0\H,14,1.08066,13,119.495,11,179.822,0\C,14,1.383,13,120.659,11,-0.4205,0\H,16,1.08034,14,119.735,13,-179.836,0\C,16,1.38079,14,120.545,13,0.265849,0\H,18,1.07839,16,119.469,14,179.898,0\C,13,1.45913,11,122.952,10,-179.911,0\H,20,1.08342,13,114.341,11,-173.412,0\C,20,1.32723,13,126.812,11,7.32604,0\H,22,1.07646,20,121.27,13,179.719,0\H,22,1.07651,20,122.925,13,0.109856,0\\\@

 Total job time:  32.74s(wall), 32.62s(cpu) 
 Mon Feb  7 08:27:22 2022

        *************************************************************
        *                                                           *
        *  Thank you very much for using Q-Chem.  Have a nice day.  *
        *                                                           *
        *************************************************************


