21
 energy: -38.959542694410 gnorm: 0.000103940986 xtb: 6.4.1 (23d549d)
C         2.76506021130000    2.58615498590000   -0.11808639420000
C         2.54469273970000    1.28840723870000    0.05197969910000
C         1.25018563090000    0.61783276150000    0.02731398390000
C         0.03774495790000    1.29629626680000    0.01682146130000
C        -1.19880440050000    0.65626625080000   -0.00532495290000
C        -2.47654865180000    1.35783994110000   -0.01657006380000
C        -2.65638889070000    2.66989108030000    0.07407578110000
C        -1.19121834300000   -0.74185206210000   -0.01931629180000
F        -2.34704831340000   -1.42926946080000   -0.04328611910000
C         0.00127285790000   -1.44034533950000   -0.00231241720000
F         0.01005507280000   -2.79924153620000   -0.01016017480000
C         1.23127108100000   -0.78912888980000    0.02368808710000
O         2.38482581080000   -1.49324885890000    0.03846015300000
H         3.76265331140000    2.98797694910000   -0.08434476180000
H         1.97765068280000    3.29637852540000   -0.30401038320000
H         3.38086384220000    0.62229579060000    0.21259628290000
H         0.05579591210000    2.37239092730000    0.03060995650000
H        -3.34131857540000    0.71343205460000   -0.10253675530000
H        -1.84374416930000    3.36876752210000    0.17143658260000
H        -3.64442784360000    3.09533435460000    0.05708114990000
H         2.18528212630000   -2.44013865030000    0.03154319530000
