
Running Job 1 of 1 fragments/B011/conf-0/spe_input.inp
qchem fragments/B011/conf-0/spe_input.inp_51412.0 /gpfs/fs0/scratch/a/aspuru/rhickman/descriptor_computation/qchem51412/ 0
/scinet/niagara/software/commercial/qc52/exe/qcprog.exe_s fragments/B011/conf-0/spe_input.inp_51412.0 /gpfs/fs0/scratch/a/aspuru/rhickman/descriptor_computation/qchem51412/
                  Welcome to Q-Chem
     A Quantum Leap Into The Future Of Chemistry


 Q-Chem 5.2, Q-Chem, Inc., Pleasanton, CA (2019)

 License issued to: SRG Alan Aspuru-Guzik, University of Toronto

 Yihan Shao,  Zhengting Gan,  E. Epifanovsky,  A. T. B. Gilbert,  M. Wormit,  
 J. Kussmann,  A. W. Lange,  A. Behn,  Jia Deng,  Xintian Feng,  D. Ghosh,  
 M. Goldey,  P. R. Horn,  L. D. Jacobson,  I. Kaliman,  T. Kus,  A. Landau,  
 Jie Liu,  E. I. Proynov,  R. M. Richard,  R. P. Steele,  E. J. Sundstrom,  
 H. L. Woodcock III,  P. M. Zimmerman,  D. Zuev,  B. Albrecht,  E. Alguire,  
 S. A. Baeppler,  D. Barton,  Z. Benda,  Y. A. Bernard,  E. J. Berquist,  
 K. B. Bravaya,  H. Burton,  D. Casanova,  Chun-Min Chang,  Yunqing Chen,  
 A. Chien,  K. D. Closser,  M. P. Coons,  S. Coriani,  S. Dasgupta,  
 A. L. Dempwolff,  M. Diedenhofen,  Hainam Do,  R. G. Edgar,  Po-Tung Fang,  
 S. Faraji,  S. Fatehi,  Qingguo Feng,  K. D. Fenk,  J. Fosso-Tande,  
 J. Gayvert,  Qinghui Ge,  A. Ghysels,  G. Gidofalvi,  J. Gomes,  
 J. Gonthier,  A. Gunina,  D. Hait,  M. W. D. Hanson-Heine,  
 P. H. P. Harbach,  A. W. Hauser,  M. F. Herbst,  J. E. Herr,  
 E. G. Hohenstein,  Z. C. Holden,  Kerwin Hui,  B. C. Huynh,  T.-C. Jagau,  
 Hyunjun Ji,  B. Kaduk,  K. Khistyaev,  Jaehoon Kim,  P. Klunzinger,  K. Koh,  
 D. Kosenkov,  L. Koulias,  T. Kowalczyk,  C. M. Krauter,  A. Kunitsa,  
 Ka Un Lao,  A. Laurent,  K. V. Lawler,  Joonho Lee,  D. Lefrancois,  
 S. Lehtola,  D. S. Levine,  Yi-Pei Li,  You-Sheng Lin,  Fenglai Liu,  
 E. Livshits,  A. Luenser,  P. Manohar,  E. Mansoor,  S. F. Manzer,  
 Shan-Ping Mao,  Yuezhi Mao,  N. Mardirossian,  A. V. Marenich,  
 T. Markovich,  L. A. Martinez-Martinez,  S. A. Maurer,  N. J. Mayhall,  
 S. C. McKenzie,  J.-M. Mewes,  P. Morgante,  A. F. Morrison,  
 J. W. Mullinax,  K. Nanda,  T. S. Nguyen-Beck,  R. Olivares-Amaya,  
 J. A. Parkhill,  Zheng Pei,  T. M. Perrine,  F. Plasser,  P. Pokhilko,  
 S. Prager,  A. Prociuk,  E. Ramos,  D. R. Rehn,  F. Rob,  M. Scheurer,  
 M. Schneider,  N. Sergueev,  S. M. Sharada,  S. Sharma,  D. W. Small,  
 T. Stauch,  T. Stein,  Yu-Chuan Su,  A. J. W. Thom,  A. Tkatchenko,  
 T. Tsuchimochi,  N. M. Tubman,  L. Vogt,  M. L. Vidal,  O. Vydrov,  
 M. A. Watson,  J. Wenzel,  M. de Wergifosse,  T. A. Wesolowski,  A. White,  
 J. Witte,  A. Yamada,  Jun Yang,  K. Yao,  S. Yeganeh,  S. R. Yost,  
 Zhi-Qiang You,  A. Zech,  Igor Ying Zhang,  Xing Zhang,  Yan Zhao,  
 Ying Zhu,  B. R. Brooks,  G. K. L. Chan,  C. J. Cramer,  M. S. Gordon,  
 W. J. Hehre,  A. Klamt,  M. W. Schmidt,  C. D. Sherrill,  D. G. Truhlar,  
 A. Aspuru-Guzik,  R. Baer,  A. T. Bell,  N. A. Besley,  Jeng-Da Chai,  
 A. E. DePrince, III,  R. A. DiStasio Jr.,  A. Dreuw,  B. D. Dunietz,  
 T. R. Furlani,  Chao-Ping Hsu,  Yousung Jung,  Jing Kong,  D. S. Lambrecht,  
 WanZhen Liang,  C. Ochsenfeld,  V. A. Rassolov,  L. V. Slipchenko,  
 J. E. Subotnik,  T. Van Voorhis,  J. M. Herbert,  A. I. Krylov,  
 P. M. W. Gill,  M. Head-Gordon

 Contributors to earlier versions of Q-Chem not listed above: 
 R. D. Adamson,  B. Austin,  J. Baker,  G. J. O. Beran,  K. Brandhorst,  
 S. T. Brown,  E. F. C. Byrd,  A. K. Chakraborty,  C.-L. Cheng,  
 Siu Hung Chien,  D. M. Chipman,  D. L. Crittenden,  H. Dachsel,  
 R. J. Doerksen,  A. D. Dutoi,  L. Fusti-Molnar,  W. A. Goddard III,  
 A. Golubeva-Zadorozhnaya,  S. R. Gwaltney,  G. Hawkins,  A. Heyden,  
 S. Hirata,  G. Kedziora,  F. J. Keil,  C. Kelley,  Jihan Kim,  R. A. King,  
 R. Z. Khaliullin,  P. P. Korambath,  W. Kurlancheek,  A. M. Lee,  M. S. Lee,  
 S. V. Levchenko,  Ching Yeh Lin,  D. Liotard,  R. C. Lochan,  I. Lotan,  
 P. E. Maslen,  N. Nair,  D. P. O'Neill,  D. Neuhauser,  E. Neuscamman,  
 C. M. Oana,  R. Olson,  B. Peters,  R. Peverati,  P. A. Pieniazek,  
 Y. M. Rhee,  J. Ritchie,  M. A. Rohrdanz,  E. Rosta,  N. J. Russ,  
 H. F. Schaefer III,  N. E. Schultz,  N. Shenvi,  A. C. Simmonett,  A. Sodt,  
 D. Stuck,  K. S. Thanthiriwatte,  V. Vanovschi,  Tao Wang,  A. Warshel,  
 C. F. Williams,  Q. Wu,  X. Xu,  W. Zhang

 Please cite Q-Chem as follows:
 Y. Shao et al., Mol. Phys. 113, 184-215 (2015)
 DOI: 10.1080/00268976.2014.952696

 Q-Chem 5.2.1 for Intel X86 EM64T Linux

 Parts of Q-Chem use Armadillo 8.300.2 (Tropical Shenanigans).
 http://arma.sourceforge.net/

 Q-Chem begins on Mon Feb  7 13:49:40 2022  

Host: 
0

     Scratch files written to /gpfs/fs0/scratch/a/aspuru/rhickman/descriptor_computation/qchem51412//
 Jul1719 |scratch|qcdevops|jenkins|workspace|build_RNUM -1
Processing $rem in /scinet/niagara/software/commercial/qc52/config/preferences:
	 MEM_TOTAL  4000 
NAlpha2: 118
NElect   118
Mult     1

Checking the input file for inconsistencies... 	...done.

--------------------------------------------------------------
User input:
--------------------------------------------------------------
$molecule
0 1
C         1.22887794880000   -3.93127969260000   -0.09343417080000
C         0.10470154540000   -3.24168469220000    0.05709469120000
C        -0.02933174500000   -1.78871228260000    0.04282192940000
C         1.06993502570000   -0.93166768830000    0.03898752740000
C         0.91530541220000    0.45200210080000    0.01922500960000
C         2.03383605480000    1.38309838310000    0.01238131930000
C         3.33086161210000    1.11117235300000   -0.00063417570000
F         3.91457960380000   -0.07954164190000   -0.00994426350000
F         4.26888218880000    2.05090850370000   -0.00800574110000
C        -0.37431036510000    0.98956299060000    0.00625529820000
C        -1.46909841360000    0.14341752430000    0.01765199150000
C        -2.86616219830000    0.69698948170000   -0.00761617190000
F        -2.91589581020000    2.02549825220000    0.15805659880000
F        -3.48960561750000    0.43739243170000   -1.17333650310000
F        -3.64216075820000    0.16367577230000    0.95270654640000
C        -1.30912317070000   -1.23387282440000    0.03619357940000
H         1.22706828510000   -5.00723803260000   -0.07391307400000
H         2.18695510270000   -3.46568848380000   -0.24818241630000
H        -0.82732232760000   -3.77535761410000    0.19220651270000
H         2.05814395960000   -1.35706495840000    0.05962833920000
H         1.78512332330000    2.43428993550000    0.01502698890000
H        -0.51787792880000    2.05880345550000   -0.00784320930000
H        -2.17964288290000   -1.87278594640000    0.04449855130000
$end

$rem
BASIS = 6-31G*
GUI = 2
METHOD = B3LYP
PRINT_ORBITALS false
MOLDEN_FORMAT false
--------------------------------------------------------------
 ----------------------------------------------------------------
             Standard Nuclear Orientation (Angstroms)
    I     Atom           X                Y                Z
 ----------------------------------------------------------------
    1      C       1.2313080069    -3.8578495414    -0.0907360336
    2      C       0.1024652924    -3.1757007413     0.0587963355
    3      C      -0.0412777369    -1.7236663768     0.0435778126
    4      C       1.0522327726    -0.8592891325     0.0397939244
    5      C       0.8883603652     0.5233030891     0.0191168227
    6      C       2.0006404832     1.4618574244     0.0122889186
    7      C       3.2994627605     1.1986070464     0.0001071409
    8      F       3.8911381661     0.0118195029    -0.0081832209
    9      F       4.2311793516     2.1445930951    -0.0073470490
   10      C      -0.4048158382     1.0522163204     0.0051569732
   11      C      -1.4939245748     0.1987724578     0.0164988873
   12      C      -2.8946470792     0.7429701729    -0.0098245458
   13      F      -2.9533533147     2.0712156209     0.1550210191
   14      F      -3.5157332343     0.4785088104    -1.1757097853
   15      F      -3.6675600607     0.2050529534     0.9504189591
   16      C      -1.3247487007    -1.1774054365     0.0359539708
   17      H       1.2366862378    -4.9337840063    -0.0705667627
   18      H       2.1863293718    -3.3859519561    -0.2452704551
   19      H      -0.8260377036    -3.7155159813     0.1937488636
   20      H       2.0432545676    -1.2780531369     0.0612015864
   21      H       1.7448996493     2.5113629184     0.0141720023
   22      H      -0.5555259036     2.1204637156    -0.0096607166
   23      H      -2.1909788967    -1.8221230906     0.0441949346
 ----------------------------------------------------------------
 Molecular Point Group                 C1    NOp =  1
 Largest Abelian Subgroup              C1    NOp =  1
 Nuclear Repulsion Energy =        1074.46452556 hartrees
 There are       59 alpha and       59 beta electrons
 Requested basis set is 6-31G(d)
 There are 78 shells and 254 basis functions

 Total QAlloc Memory Limit   4000 MB
 Mega-Array Size       188 MB
 MEM_STATIC part       192 MB
 A cutoff of  1.0D-08 yielded   1856 shell pairs
 There are     20631 function pairs
 Smallest overlap matrix eigenvalue = 3.59E-04

 Scale SEOQF with 1.000000e-01/1.000000e-01/1.000000e+00

 Standard Electronic Orientation quadrupole field applied
 Nucleus-field energy     =     0.0000000323 hartrees
 Guess from superposition of atomic densities
 Warning:  Energy on first SCF cycle will be non-variational
 SAD guess density has 118.000000 electrons

 -----------------------------------------------------------------------
  General SCF calculation program by
  Eric Jon Sundstrom, Paul Horn, Yuezhi Mao, Dmitri Zuev, Alec White,
  David Stuck, Shaama M.S., Shane Yost, Joonho Lee, David Small,
  Daniel Levine, Susi Lehtola, Hugh Burton, Evgeny Epifanovsky,
  Bang C. Huynh
 -----------------------------------------------------------------------
 Exchange:     0.2000 Hartree-Fock + 0.0800 Slater + 0.7200 B88
 Correlation:  0.1900 VWN1RPA + 0.8100 LYP
 Using SG-1 standard quadrature grid
 A restricted SCF calculation will be
 performed using DIIS
 SCF converges when DIIS error is below 1.0e-05
 ---------------------------------------
  Cycle       Energy         DIIS error
 ---------------------------------------
    1    -925.9772950397      4.87e-02  
    2    -922.2802469725      6.11e-03  
    3    -922.0115701162      8.75e-03  
    4    -922.5398718438      1.24e-03  
    5    -922.5507031871      5.02e-04  
    6    -922.5525091318      1.85e-04  
    7    -922.5527788935      4.58e-05  
    8    -922.5527930851      1.85e-05  
    9    -922.5527957697      5.29e-06  Convergence criterion met
 ---------------------------------------
 SCF time:   CPU 38.20s  wall 38.00s 
 SCF   energy in the final basis set =     -922.5527957697
 Total energy in the final basis set =     -922.5527957697
 
 --------------------------------------------------------------
 
                    Orbital Energies (a.u.)
 --------------------------------------------------------------
 
 Alpha MOs
 -- Occupied --
-24.7559 -24.7451 -24.7256 -24.7195 -24.7166 -10.4296 -10.3687 -10.2230
-10.2181 -10.2137 -10.2130 -10.2097 -10.2070 -10.2030 -10.2014 -10.1917
 -1.3052  -1.2979  -1.2364  -1.2159  -1.2094  -0.8915  -0.8288  -0.8131
 -0.7660  -0.7459  -0.6993  -0.6605  -0.6454  -0.6251  -0.5988  -0.5841
 -0.5788  -0.5736  -0.5544  -0.5307  -0.5189  -0.5120  -0.4836  -0.4754
 -0.4564  -0.4549  -0.4519  -0.4488  -0.4415  -0.4296  -0.4215  -0.4191
 -0.4089  -0.4026  -0.3960  -0.3940  -0.3891  -0.3593  -0.3563  -0.3312
 -0.3015  -0.2464  -0.2336
 -- Virtual --
 -0.0475  -0.0441   0.0241   0.0694   0.0790   0.1048   0.1108   0.1405
  0.1438   0.1476   0.1574   0.1693   0.1771   0.1962   0.2250   0.2269
  0.2355   0.2575   0.2709   0.2945   0.3186   0.3348   0.3525   0.3917
  0.4203   0.4328   0.4650   0.4768   0.4797   0.4951   0.5087   0.5192
  0.5273   0.5341   0.5414   0.5596   0.5609   0.5664   0.5734   0.5838
  0.5880   0.5927   0.6123   0.6218   0.6339   0.6489   0.6733   0.6887
  0.7220   0.7331   0.7634   0.7644   0.7800   0.8061   0.8133   0.8199
  0.8533   0.8729   0.8733   0.9016   0.9232   0.9462   0.9597   0.9716
  1.0019   1.0315   1.0510   1.0631   1.0768   1.0896   1.0955   1.1174
  1.1244   1.1500   1.1592   1.1698   1.1966   1.2048   1.2152   1.2333
  1.2409   1.2513   1.2648   1.3063   1.3267   1.3334   1.3432   1.3579
  1.3709   1.3839   1.3900   1.3930   1.4125   1.4326   1.4420   1.4558
  1.4663   1.4753   1.4891   1.5020   1.5125   1.5901   1.5960   1.6283
  1.6406   1.6661   1.6696   1.6900   1.7355   1.7594   1.7715   1.7735
  1.7850   1.8015   1.8191   1.8264   1.8390   1.8598   1.8634   1.8842
  1.8851   1.8983   1.9380   1.9522   1.9649   1.9727   1.9793   1.9894
  2.0029   2.0137   2.0176   2.0288   2.0397   2.0614   2.0958   2.0986
  2.1057   2.1168   2.1328   2.1472   2.1744   2.2040   2.2137   2.2274
  2.2365   2.2661   2.2855   2.3074   2.3375   2.3818   2.4033   2.4316
  2.4648   2.4931   2.5170   2.5182   2.5726   2.6263   2.6291   2.6583
  2.6708   2.6834   2.7171   2.7548   2.7660   2.8377   2.8489   2.8903
  2.9284   2.9802   3.0107   3.0446   3.0477   3.0521   3.1118   3.1339
  3.1837   3.3198   3.4618   4.0658   4.0797   4.0861   4.1136   4.1441
  4.2260   4.2371   4.2895   4.3498   4.4744   4.5245   4.7146   4.8008
  4.8264   5.3030   5.6460
 --------------------------------------------------------------
 
          Ground-State Mulliken Net Atomic Charges

     Atom                 Charge (a.u.)
  ----------------------------------------
      1 C                    -0.349603
      2 C                    -0.112382
      3 C                     0.175117
      4 C                    -0.247692
      5 C                     0.197689
      6 C                    -0.300134
      7 C                     0.551205
      8 F                    -0.230694
      9 F                    -0.241922
     10 C                    -0.236284
     11 C                    -0.006490
     12 C                     0.779887
     13 F                    -0.266647
     14 F                    -0.263902
     15 F                    -0.266691
     16 C                    -0.232279
     17 H                     0.151264
     18 H                     0.150565
     19 H                     0.134836
     20 H                     0.143510
     21 H                     0.165669
     22 H                     0.152544
     23 H                     0.152433
  ----------------------------------------
  Sum of atomic charges =     0.000000

 -----------------------------------------------------------------
                    Cartesian Multipole Moments
 -----------------------------------------------------------------
    Charge (ESU x 10^10)
                 0.0000
    Dipole Moment (Debye)
         X       1.6104      Y      -0.8521      Z       0.0612
       Tot       1.8230
    Quadrupole Moments (Debye-Ang)
        XX     -94.8475     XY       1.7621     YY     -79.2728
        XZ      -0.5007     YZ      -0.0537     ZZ     -90.0711
    Octopole Moments (Debye-Ang^2)
       XXX       0.1840    XXY      -8.2495    XYY      -2.4305
       YYY      16.8421    XXZ      -0.1697    XYZ       1.1203
       YYZ      -0.1611    XZZ      -0.8281    YZZ      17.7901
       ZZZ      -0.3043
    Hexadecapole Moments (Debye-Ang^3)
      XXXX   -3247.2246   XXXY     -11.5398   XXYY    -796.4770
      XYYY      -2.0918   YYYY   -1565.0466   XXXZ      -1.2026
      XXYZ       2.8213   XYYZ      -3.8276   YYYZ      -2.7185
      XXZZ    -542.2615   XYZZ       6.0356   YYZZ    -331.3848
      XZZZ      -0.7479   YZZZ      -0.5000   ZZZZ    -144.7985
 -----------------------------------------------------------------
Archival summary:
1\1\nia1977.scinet.local\SP\ProcedureUnspecified\6-31G*\5117\rhickman\MonFeb713:50:192022MonFeb713:50:192022\0\\#,ProcedureUnspecified,6-31G*,\\0,1\F\C,1,1.33972\F,2,1.34492,1,106.469\F,2,1.34721,1,106.314,3,112.625,0\C,2,1.50295,1,113.432,3,-123.921,0\C,5,1.38371,2,120.669,1,-9.28859,0\H,6,1.07893,5,120.056,2,0.808008,0\C,5,1.38667,2,118.248,1,171.479,0\H,8,1.07985,5,119.654,2,-0.752861,0\C,8,1.3949,5,120.065,2,179.189,0\C,10,1.39389,8,118.618,5,0.399535,0\H,11,1.07608,10,118.758,8,179.056,0\C,11,1.39242,10,121.564,8,-0.461444,0\C,13,1.45537,11,123.399,10,-179.899,0\H,14,1.08022,13,116.462,11,-178.913,0\C,14,1.32529,13,128.385,11,1.30087,0\F,16,1.32613,14,127.958,13,-0.0308236,0\F,16,1.3278,14,123.108,13,179.885,0\C,10,1.45921,8,118.71,5,-179.762,0\H,19,1.08247,10,114.396,8,-7.62486,0\C,19,1.32739,10,126.439,8,171.474,0\H,21,1.07614,19,121.061,10,-179.629,0\H,21,1.0764,19,123.052,10,-0.106902,0\\\@

 Total job time:  38.54s(wall), 38.41s(cpu) 
 Mon Feb  7 13:50:19 2022

        *************************************************************
        *                                                           *
        *  Thank you very much for using Q-Chem.  Have a nice day.  *
        *                                                           *
        *************************************************************


