
Running Job 1 of 1 fragments/C108/conf-1/spe_input.inp
qchem fragments/C108/conf-1/spe_input.inp_192242.0 /gpfs/fs0/scratch/a/aspuru/rhickman/descriptor_computation/qchem192242/ 0
/scinet/niagara/software/commercial/qc52/exe/qcprog.exe_s fragments/C108/conf-1/spe_input.inp_192242.0 /gpfs/fs0/scratch/a/aspuru/rhickman/descriptor_computation/qchem192242/
                  Welcome to Q-Chem
     A Quantum Leap Into The Future Of Chemistry


 Q-Chem 5.2, Q-Chem, Inc., Pleasanton, CA (2019)

 License issued to: SRG Alan Aspuru-Guzik, University of Toronto

 Yihan Shao,  Zhengting Gan,  E. Epifanovsky,  A. T. B. Gilbert,  M. Wormit,  
 J. Kussmann,  A. W. Lange,  A. Behn,  Jia Deng,  Xintian Feng,  D. Ghosh,  
 M. Goldey,  P. R. Horn,  L. D. Jacobson,  I. Kaliman,  T. Kus,  A. Landau,  
 Jie Liu,  E. I. Proynov,  R. M. Richard,  R. P. Steele,  E. J. Sundstrom,  
 H. L. Woodcock III,  P. M. Zimmerman,  D. Zuev,  B. Albrecht,  E. Alguire,  
 S. A. Baeppler,  D. Barton,  Z. Benda,  Y. A. Bernard,  E. J. Berquist,  
 K. B. Bravaya,  H. Burton,  D. Casanova,  Chun-Min Chang,  Yunqing Chen,  
 A. Chien,  K. D. Closser,  M. P. Coons,  S. Coriani,  S. Dasgupta,  
 A. L. Dempwolff,  M. Diedenhofen,  Hainam Do,  R. G. Edgar,  Po-Tung Fang,  
 S. Faraji,  S. Fatehi,  Qingguo Feng,  K. D. Fenk,  J. Fosso-Tande,  
 J. Gayvert,  Qinghui Ge,  A. Ghysels,  G. Gidofalvi,  J. Gomes,  
 J. Gonthier,  A. Gunina,  D. Hait,  M. W. D. Hanson-Heine,  
 P. H. P. Harbach,  A. W. Hauser,  M. F. Herbst,  J. E. Herr,  
 E. G. Hohenstein,  Z. C. Holden,  Kerwin Hui,  B. C. Huynh,  T.-C. Jagau,  
 Hyunjun Ji,  B. Kaduk,  K. Khistyaev,  Jaehoon Kim,  P. Klunzinger,  K. Koh,  
 D. Kosenkov,  L. Koulias,  T. Kowalczyk,  C. M. Krauter,  A. Kunitsa,  
 Ka Un Lao,  A. Laurent,  K. V. Lawler,  Joonho Lee,  D. Lefrancois,  
 S. Lehtola,  D. S. Levine,  Yi-Pei Li,  You-Sheng Lin,  Fenglai Liu,  
 E. Livshits,  A. Luenser,  P. Manohar,  E. Mansoor,  S. F. Manzer,  
 Shan-Ping Mao,  Yuezhi Mao,  N. Mardirossian,  A. V. Marenich,  
 T. Markovich,  L. A. Martinez-Martinez,  S. A. Maurer,  N. J. Mayhall,  
 S. C. McKenzie,  J.-M. Mewes,  P. Morgante,  A. F. Morrison,  
 J. W. Mullinax,  K. Nanda,  T. S. Nguyen-Beck,  R. Olivares-Amaya,  
 J. A. Parkhill,  Zheng Pei,  T. M. Perrine,  F. Plasser,  P. Pokhilko,  
 S. Prager,  A. Prociuk,  E. Ramos,  D. R. Rehn,  F. Rob,  M. Scheurer,  
 M. Schneider,  N. Sergueev,  S. M. Sharada,  S. Sharma,  D. W. Small,  
 T. Stauch,  T. Stein,  Yu-Chuan Su,  A. J. W. Thom,  A. Tkatchenko,  
 T. Tsuchimochi,  N. M. Tubman,  L. Vogt,  M. L. Vidal,  O. Vydrov,  
 M. A. Watson,  J. Wenzel,  M. de Wergifosse,  T. A. Wesolowski,  A. White,  
 J. Witte,  A. Yamada,  Jun Yang,  K. Yao,  S. Yeganeh,  S. R. Yost,  
 Zhi-Qiang You,  A. Zech,  Igor Ying Zhang,  Xing Zhang,  Yan Zhao,  
 Ying Zhu,  B. R. Brooks,  G. K. L. Chan,  C. J. Cramer,  M. S. Gordon,  
 W. J. Hehre,  A. Klamt,  M. W. Schmidt,  C. D. Sherrill,  D. G. Truhlar,  
 A. Aspuru-Guzik,  R. Baer,  A. T. Bell,  N. A. Besley,  Jeng-Da Chai,  
 A. E. DePrince, III,  R. A. DiStasio Jr.,  A. Dreuw,  B. D. Dunietz,  
 T. R. Furlani,  Chao-Ping Hsu,  Yousung Jung,  Jing Kong,  D. S. Lambrecht,  
 WanZhen Liang,  C. Ochsenfeld,  V. A. Rassolov,  L. V. Slipchenko,  
 J. E. Subotnik,  T. Van Voorhis,  J. M. Herbert,  A. I. Krylov,  
 P. M. W. Gill,  M. Head-Gordon

 Contributors to earlier versions of Q-Chem not listed above: 
 R. D. Adamson,  B. Austin,  J. Baker,  G. J. O. Beran,  K. Brandhorst,  
 S. T. Brown,  E. F. C. Byrd,  A. K. Chakraborty,  C.-L. Cheng,  
 Siu Hung Chien,  D. M. Chipman,  D. L. Crittenden,  H. Dachsel,  
 R. J. Doerksen,  A. D. Dutoi,  L. Fusti-Molnar,  W. A. Goddard III,  
 A. Golubeva-Zadorozhnaya,  S. R. Gwaltney,  G. Hawkins,  A. Heyden,  
 S. Hirata,  G. Kedziora,  F. J. Keil,  C. Kelley,  Jihan Kim,  R. A. King,  
 R. Z. Khaliullin,  P. P. Korambath,  W. Kurlancheek,  A. M. Lee,  M. S. Lee,  
 S. V. Levchenko,  Ching Yeh Lin,  D. Liotard,  R. C. Lochan,  I. Lotan,  
 P. E. Maslen,  N. Nair,  D. P. O'Neill,  D. Neuhauser,  E. Neuscamman,  
 C. M. Oana,  R. Olson,  B. Peters,  R. Peverati,  P. A. Pieniazek,  
 Y. M. Rhee,  J. Ritchie,  M. A. Rohrdanz,  E. Rosta,  N. J. Russ,  
 H. F. Schaefer III,  N. E. Schultz,  N. Shenvi,  A. C. Simmonett,  A. Sodt,  
 D. Stuck,  K. S. Thanthiriwatte,  V. Vanovschi,  Tao Wang,  A. Warshel,  
 C. F. Williams,  Q. Wu,  X. Xu,  W. Zhang

 Please cite Q-Chem as follows:
 Y. Shao et al., Mol. Phys. 113, 184-215 (2015)
 DOI: 10.1080/00268976.2014.952696

 Q-Chem 5.2.1 for Intel X86 EM64T Linux

 Parts of Q-Chem use Armadillo 8.300.2 (Tropical Shenanigans).
 http://arma.sourceforge.net/

 Q-Chem begins on Mon Feb  7 18:56:42 2022  

Host: 
0

     Scratch files written to /gpfs/fs0/scratch/a/aspuru/rhickman/descriptor_computation/qchem192242//
 Jul1719 |scratch|qcdevops|jenkins|workspace|build_RNUM -1
Processing $rem in /scinet/niagara/software/commercial/qc52/config/preferences:
	 MEM_TOTAL  4000 
NAlpha2: 82
NElect   82
Mult     1

Checking the input file for inconsistencies... 	...done.

--------------------------------------------------------------
User input:
--------------------------------------------------------------
$molecule
0 1
C         3.58908485850000    0.19139112420000    0.07330765460000
C         2.34364341070000    0.55601654510000   -0.20583115800000
C         1.16738373360000   -0.30155819450000   -0.09710496720000
C         1.26378446590000   -1.69050446810000   -0.10587327890000
C         0.13516694350000   -2.47898983020000    0.02094192240000
C        -1.11352189400000   -1.89808287590000    0.14254876200000
C        -1.26549193230000   -0.51359237840000    0.11716701380000
C        -2.61404859320000    0.04323091920000    0.20040182170000
C        -3.03925527260000    1.14341851210000   -0.40507524330000
C        -0.11161183190000    0.28132307730000    0.01082380640000
C        -0.19718680720000    1.68974317490000    0.09069044090000
N        -0.21418986620000    2.83408159270000    0.18155793410000
H         4.40772784100000    0.88260744050000   -0.02702782630000
H         3.84284826860000   -0.79423405330000    0.42576849090000
H         2.14681979520000    1.57362857100000   -0.51801275880000
H         2.23057900510000   -2.15476625190000   -0.22043266550000
H         0.22908165990000   -3.55495172980000    0.02269578810000
H        -1.99190195040000   -2.51968888220000    0.23767886750000
H        -3.31211459310000   -0.55677795890000    0.77206215220000
H        -2.39914437640000    1.74929150670000   -1.02270065690000
H        -4.05955017060000    1.47358739270000   -0.31022463620000
$end

$rem
BASIS = 6-31G*
GUI = 2
METHOD = B3LYP
PRINT_ORBITALS false
MOLDEN_FORMAT false
--------------------------------------------------------------
 ----------------------------------------------------------------
             Standard Nuclear Orientation (Angstroms)
    I     Atom           X                Y                Z
 ----------------------------------------------------------------
    1      C       3.5037932709     0.7757789696     0.0883637045
    2      C       2.2160299890     0.9450564104    -0.1855075284
    3      C       1.1899626711    -0.0894277004    -0.0967881379
    4      C       1.5042867323    -1.4452840135    -0.1341482512
    5      C       0.5143895822    -2.4044179805    -0.0258226353
    6      C      -0.8101402357    -2.0304448824     0.1054397329
    7      C      -1.1786826060    -0.6870460355     0.1084601492
    8      C      -2.5980834850    -0.3518095968     0.2006716472
    9      C      -3.1924004483     0.6798400903    -0.3826826246
   10      C      -0.1648250104     0.2819969069     0.0207829168
   11      C      -0.4714313111     1.6573112354     0.1296498140
   12      N      -0.6686432401     2.7824993269     0.2441733205
   13      H       4.2029827428     1.5894285651     0.0039127987
   14      H       3.9103829217    -0.1645655943     0.4208068680
   15      H       1.8606768415     1.9251277096    -0.4769101908
   16      H       2.5320593549    -1.7487194865    -0.2564793102
   17      H       0.7768919777    -3.4518887413    -0.0461833099
   18      H      -1.5793087125    -2.7846879549     0.1860159656
   19      H      -3.1919330103    -1.0661727850     0.7584622030
   20      H      -2.6567700207     1.3918030155    -0.9864160382
   21      H      -4.2518743083     0.8428595626    -0.2829349529
 ----------------------------------------------------------------
 Molecular Point Group                 C1    NOp =  1
 Largest Abelian Subgroup              C1    NOp =  1
 Nuclear Repulsion Energy =         603.91820815 hartrees
 There are       41 alpha and       41 beta electrons
 Requested basis set is 6-31G(d)
 There are 66 shells and 198 basis functions

 Total QAlloc Memory Limit   4000 MB
 Mega-Array Size       188 MB
 MEM_STATIC part       192 MB
 A cutoff of  1.0D-08 yielded   1610 shell pairs
 There are     16005 function pairs
 Smallest overlap matrix eigenvalue = 2.90E-04

 Scale SEOQF with 1.000000e-01/1.000000e-01/1.000000e+00

 Standard Electronic Orientation quadrupole field applied
 Nucleus-field energy     =     0.0000000207 hartrees
 Guess from superposition of atomic densities
 Warning:  Energy on first SCF cycle will be non-variational
 SAD guess density has 82.000000 electrons

 -----------------------------------------------------------------------
  General SCF calculation program by
  Eric Jon Sundstrom, Paul Horn, Yuezhi Mao, Dmitri Zuev, Alec White,
  David Stuck, Shaama M.S., Shane Yost, Joonho Lee, David Small,
  Daniel Levine, Susi Lehtola, Hugh Burton, Evgeny Epifanovsky,
  Bang C. Huynh
 -----------------------------------------------------------------------
 Exchange:     0.2000 Hartree-Fock + 0.0800 Slater + 0.7200 B88
 Correlation:  0.1900 VWN1RPA + 0.8100 LYP
 Using SG-1 standard quadrature grid
 A restricted SCF calculation will be
 performed using DIIS
 SCF converges when DIIS error is below 1.0e-05
 ---------------------------------------
  Cycle       Energy         DIIS error
 ---------------------------------------
    1    -482.0320343847      5.79e-02  
    2    -479.1065728652      5.85e-03  
    3    -478.9678357592      8.27e-03  
    4    -479.2332393738      3.26e-03  
    5    -479.2825891107      3.41e-04  
    6    -479.2830491944      1.39e-04  
    7    -479.2831431642      4.63e-05  
    8    -479.2831524612      1.62e-05  
    9    -479.2831537591      4.72e-06  Convergence criterion met
 ---------------------------------------
 SCF time:   CPU 26.87s  wall 27.00s 
 SCF   energy in the final basis set =     -479.2831537591
 Total energy in the final basis set =     -479.2831537591
 
 --------------------------------------------------------------
 
                    Orbital Energies (a.u.)
 --------------------------------------------------------------
 
 Alpha MOs
 -- Occupied --
-14.3273 -10.2314 -10.2219 -10.2218 -10.2207 -10.2096 -10.2054 -10.2050
-10.2005 -10.2003 -10.1933 -10.1900  -0.9140  -0.8852  -0.8223  -0.7989
 -0.7646  -0.7375  -0.6619  -0.6464  -0.6022  -0.5591  -0.5488  -0.5090
 -0.4866  -0.4729  -0.4603  -0.4426  -0.4266  -0.4100  -0.3951  -0.3887
 -0.3699  -0.3657  -0.3520  -0.3480  -0.3259  -0.3189  -0.2939  -0.2496
 -0.2367
 -- Virtual --
 -0.0579  -0.0483   0.0187   0.0440   0.0597   0.0845   0.0898   0.1149
  0.1254   0.1332   0.1441   0.1730   0.1847   0.1910   0.1985   0.2048
  0.2311   0.2755   0.2780   0.2948   0.3306   0.3430   0.3657   0.3883
  0.4026   0.4092   0.4755   0.4960   0.5092   0.5183   0.5250   0.5339
  0.5469   0.5539   0.5688   0.5795   0.5844   0.5893   0.6010   0.6084
  0.6155   0.6254   0.6405   0.6536   0.6623   0.6727   0.6793   0.6994
  0.7111   0.7366   0.7908   0.8056   0.8137   0.8155   0.8407   0.8449
  0.8567   0.8677   0.8768   0.8820   0.9136   0.9173   0.9316   0.9439
  0.9621   0.9761   0.9843   0.9988   1.0423   1.0702   1.0829   1.1044
  1.1170   1.1530   1.1728   1.2018   1.2081   1.2297   1.2464   1.3015
  1.3194   1.3471   1.3845   1.4336   1.4587   1.4649   1.4753   1.4991
  1.5141   1.5356   1.5517   1.5555   1.6033   1.6242   1.6679   1.6982
  1.7680   1.7795   1.7864   1.8206   1.8634   1.9023   1.9215   1.9247
  1.9358   1.9491   1.9709   1.9780   2.0129   2.0168   2.0436   2.0621
  2.1076   2.1326   2.1625   2.1680   2.1728   2.2279   2.2331   2.2519
  2.2765   2.2987   2.3127   2.3704   2.3867   2.4601   2.4708   2.5315
  2.5845   2.6063   2.6216   2.6599   2.6752   2.7105   2.7740   2.7919
  2.8337   2.8460   2.8682   2.9273   2.9913   3.0456   3.3023   3.3061
  3.5174   4.0572   4.0888   4.0920   4.1282   4.1392   4.2057   4.2338
  4.2913   4.3590   4.4685   4.5199   4.8660
 --------------------------------------------------------------
 
          Ground-State Mulliken Net Atomic Charges

     Atom                 Charge (a.u.)
  ----------------------------------------
      1 C                    -0.341073
      2 C                    -0.122470
      3 C                     0.177456
      4 C                    -0.205801
      5 C                    -0.106348
      6 C                    -0.203177
      7 C                     0.165948
      8 C                    -0.132595
      9 C                    -0.327247
     10 C                     0.032726
     11 C                     0.205433
     12 N                    -0.496158
     13 H                     0.155739
     14 H                     0.147306
     15 H                     0.163540
     16 H                     0.140122
     17 H                     0.142041
     18 H                     0.139989
     19 H                     0.139879
     20 H                     0.172323
     21 H                     0.152366
  ----------------------------------------
  Sum of atomic charges =     0.000000

 -----------------------------------------------------------------
                    Cartesian Multipole Moments
 -----------------------------------------------------------------
    Charge (ESU x 10^10)
                 0.0000
    Dipole Moment (Debye)
         X       0.7745      Y      -3.9279      Z      -0.4109
       Tot       4.0246
    Quadrupole Moments (Debye-Ang)
        XX     -58.5760     XY       2.7900     YY     -73.4329
        XZ       0.0208     YZ      -3.0231     ZZ     -71.9163
    Octopole Moments (Debye-Ang^2)
       XXX       1.1597    XXY       0.2250    XYY      12.6888
       YYY     -53.4418    XXZ       2.9322    XYZ       4.0697
       YYZ      -5.3608    XZZ      -2.6265    YZZ       2.6048
       ZZZ       0.2029
    Hexadecapole Moments (Debye-Ang^3)
      XXXX   -1488.3153   XXXY       1.2986   XXYY    -415.4031
      XYYY      36.4029   YYYY   -1065.1903   XXXZ       3.6112
      XXYZ     -15.5829   XYYZ      -0.9687   YYYZ     -16.9469
      XXZZ    -312.9520   XYZZ      -2.5383   YYZZ    -190.8423
      XZZZ       0.1473   YZZZ      -1.8539   ZZZZ     -93.8042
 -----------------------------------------------------------------
Archival summary:
1\1\nia1977.scinet.local\SP\ProcedureUnspecified\6-31G*\1119\rhickman\MonFeb718:57:112022MonFeb718:57:112022\0\\#,ProcedureUnspecified,6-31G*,\\0,1\C\C,1,1.40522\C,2,1.39304,1,118.295\H,3,1.08028,2,118.998,1,179.169,0\C,3,1.38256,2,120.965,1,-2.15146,0\H,5,1.08005,3,119.8,2,-178.745,0\C,5,1.38259,3,120.379,2,1.11055,0\H,7,1.07859,5,119.733,3,-178.747,0\C,7,1.39232,5,120.785,3,0.794484,0\C,1,1.41328,2,120.647,3,-174.788,0\N,10,1.14807,1,177.076,2,146.536,0\C,9,1.45974,7,121.992,5,178.919,0\H,12,1.08247,9,115.293,7,160.365,0\C,12,1.3274,9,125.381,7,-21.2621,0\H,14,1.07612,12,121.179,9,-179.731,0\H,14,1.07707,12,122.768,9,-0.794739,0\C,2,1.46136,1,123.129,3,-179.918,0\H,17,1.08356,2,114.429,1,-149.379,0\C,17,1.32583,2,125.883,1,34.2346,0\H,19,1.07624,17,122.58,2,-0.823467,0\H,19,1.07657,17,121.212,2,178.498,0\\\@

 Total job time:  28.38s(wall), 27.02s(cpu) 
 Mon Feb  7 18:57:11 2022

        *************************************************************
        *                                                           *
        *  Thank you very much for using Q-Chem.  Have a nice day.  *
        *                                                           *
        *************************************************************


