
Running Job 1 of 1 fragments/B001/conf-1/spe_input.inp
qchem fragments/B001/conf-1/spe_input.inp_361492.0 /gpfs/fs0/scratch/a/aspuru/rhickman/descriptor_computation/qchem361492/ 0
/scinet/niagara/software/commercial/qc52/exe/qcprog.exe_s fragments/B001/conf-1/spe_input.inp_361492.0 /gpfs/fs0/scratch/a/aspuru/rhickman/descriptor_computation/qchem361492/
                  Welcome to Q-Chem
     A Quantum Leap Into The Future Of Chemistry


 Q-Chem 5.2, Q-Chem, Inc., Pleasanton, CA (2019)

 License issued to: SRG Alan Aspuru-Guzik, University of Toronto

 Yihan Shao,  Zhengting Gan,  E. Epifanovsky,  A. T. B. Gilbert,  M. Wormit,  
 J. Kussmann,  A. W. Lange,  A. Behn,  Jia Deng,  Xintian Feng,  D. Ghosh,  
 M. Goldey,  P. R. Horn,  L. D. Jacobson,  I. Kaliman,  T. Kus,  A. Landau,  
 Jie Liu,  E. I. Proynov,  R. M. Richard,  R. P. Steele,  E. J. Sundstrom,  
 H. L. Woodcock III,  P. M. Zimmerman,  D. Zuev,  B. Albrecht,  E. Alguire,  
 S. A. Baeppler,  D. Barton,  Z. Benda,  Y. A. Bernard,  E. J. Berquist,  
 K. B. Bravaya,  H. Burton,  D. Casanova,  Chun-Min Chang,  Yunqing Chen,  
 A. Chien,  K. D. Closser,  M. P. Coons,  S. Coriani,  S. Dasgupta,  
 A. L. Dempwolff,  M. Diedenhofen,  Hainam Do,  R. G. Edgar,  Po-Tung Fang,  
 S. Faraji,  S. Fatehi,  Qingguo Feng,  K. D. Fenk,  J. Fosso-Tande,  
 J. Gayvert,  Qinghui Ge,  A. Ghysels,  G. Gidofalvi,  J. Gomes,  
 J. Gonthier,  A. Gunina,  D. Hait,  M. W. D. Hanson-Heine,  
 P. H. P. Harbach,  A. W. Hauser,  M. F. Herbst,  J. E. Herr,  
 E. G. Hohenstein,  Z. C. Holden,  Kerwin Hui,  B. C. Huynh,  T.-C. Jagau,  
 Hyunjun Ji,  B. Kaduk,  K. Khistyaev,  Jaehoon Kim,  P. Klunzinger,  K. Koh,  
 D. Kosenkov,  L. Koulias,  T. Kowalczyk,  C. M. Krauter,  A. Kunitsa,  
 Ka Un Lao,  A. Laurent,  K. V. Lawler,  Joonho Lee,  D. Lefrancois,  
 S. Lehtola,  D. S. Levine,  Yi-Pei Li,  You-Sheng Lin,  Fenglai Liu,  
 E. Livshits,  A. Luenser,  P. Manohar,  E. Mansoor,  S. F. Manzer,  
 Shan-Ping Mao,  Yuezhi Mao,  N. Mardirossian,  A. V. Marenich,  
 T. Markovich,  L. A. Martinez-Martinez,  S. A. Maurer,  N. J. Mayhall,  
 S. C. McKenzie,  J.-M. Mewes,  P. Morgante,  A. F. Morrison,  
 J. W. Mullinax,  K. Nanda,  T. S. Nguyen-Beck,  R. Olivares-Amaya,  
 J. A. Parkhill,  Zheng Pei,  T. M. Perrine,  F. Plasser,  P. Pokhilko,  
 S. Prager,  A. Prociuk,  E. Ramos,  D. R. Rehn,  F. Rob,  M. Scheurer,  
 M. Schneider,  N. Sergueev,  S. M. Sharada,  S. Sharma,  D. W. Small,  
 T. Stauch,  T. Stein,  Yu-Chuan Su,  A. J. W. Thom,  A. Tkatchenko,  
 T. Tsuchimochi,  N. M. Tubman,  L. Vogt,  M. L. Vidal,  O. Vydrov,  
 M. A. Watson,  J. Wenzel,  M. de Wergifosse,  T. A. Wesolowski,  A. White,  
 J. Witte,  A. Yamada,  Jun Yang,  K. Yao,  S. Yeganeh,  S. R. Yost,  
 Zhi-Qiang You,  A. Zech,  Igor Ying Zhang,  Xing Zhang,  Yan Zhao,  
 Ying Zhu,  B. R. Brooks,  G. K. L. Chan,  C. J. Cramer,  M. S. Gordon,  
 W. J. Hehre,  A. Klamt,  M. W. Schmidt,  C. D. Sherrill,  D. G. Truhlar,  
 A. Aspuru-Guzik,  R. Baer,  A. T. Bell,  N. A. Besley,  Jeng-Da Chai,  
 A. E. DePrince, III,  R. A. DiStasio Jr.,  A. Dreuw,  B. D. Dunietz,  
 T. R. Furlani,  Chao-Ping Hsu,  Yousung Jung,  Jing Kong,  D. S. Lambrecht,  
 WanZhen Liang,  C. Ochsenfeld,  V. A. Rassolov,  L. V. Slipchenko,  
 J. E. Subotnik,  T. Van Voorhis,  J. M. Herbert,  A. I. Krylov,  
 P. M. W. Gill,  M. Head-Gordon

 Contributors to earlier versions of Q-Chem not listed above: 
 R. D. Adamson,  B. Austin,  J. Baker,  G. J. O. Beran,  K. Brandhorst,  
 S. T. Brown,  E. F. C. Byrd,  A. K. Chakraborty,  C.-L. Cheng,  
 Siu Hung Chien,  D. M. Chipman,  D. L. Crittenden,  H. Dachsel,  
 R. J. Doerksen,  A. D. Dutoi,  L. Fusti-Molnar,  W. A. Goddard III,  
 A. Golubeva-Zadorozhnaya,  S. R. Gwaltney,  G. Hawkins,  A. Heyden,  
 S. Hirata,  G. Kedziora,  F. J. Keil,  C. Kelley,  Jihan Kim,  R. A. King,  
 R. Z. Khaliullin,  P. P. Korambath,  W. Kurlancheek,  A. M. Lee,  M. S. Lee,  
 S. V. Levchenko,  Ching Yeh Lin,  D. Liotard,  R. C. Lochan,  I. Lotan,  
 P. E. Maslen,  N. Nair,  D. P. O'Neill,  D. Neuhauser,  E. Neuscamman,  
 C. M. Oana,  R. Olson,  B. Peters,  R. Peverati,  P. A. Pieniazek,  
 Y. M. Rhee,  J. Ritchie,  M. A. Rohrdanz,  E. Rosta,  N. J. Russ,  
 H. F. Schaefer III,  N. E. Schultz,  N. Shenvi,  A. C. Simmonett,  A. Sodt,  
 D. Stuck,  K. S. Thanthiriwatte,  V. Vanovschi,  Tao Wang,  A. Warshel,  
 C. F. Williams,  Q. Wu,  X. Xu,  W. Zhang

 Please cite Q-Chem as follows:
 Y. Shao et al., Mol. Phys. 113, 184-215 (2015)
 DOI: 10.1080/00268976.2014.952696

 Q-Chem 5.2.1 for Intel X86 EM64T Linux

 Parts of Q-Chem use Armadillo 8.300.2 (Tropical Shenanigans).
 http://arma.sourceforge.net/

 Q-Chem begins on Tue Feb  8 16:41:52 2022  

Host: 
0

     Scratch files written to /gpfs/fs0/scratch/a/aspuru/rhickman/descriptor_computation/qchem361492//
 Jul1719 |scratch|qcdevops|jenkins|workspace|build_RNUM -1
Processing $rem in /scinet/niagara/software/commercial/qc52/config/preferences:
	 MEM_TOTAL  4000 
NAlpha2: 100
NElect   100
Mult     1

Checking the input file for inconsistencies... 	...done.

--------------------------------------------------------------
User input:
--------------------------------------------------------------
$molecule
0 1
C        -5.58345462770000    1.07875010330000    0.12644677090000
C        -4.91822187010000   -0.06526213050000    0.00824982570000
C        -3.47322240890000   -0.23553501650000   -0.01451945830000
C        -2.57338305010000    0.82919414380000    0.08832779470000
C        -1.21335108910000    0.61907833890000    0.06303862940000
C        -0.68263843830000   -0.66950055050000   -0.06660746790000
C         0.73571683300000   -0.94835086590000   -0.09743490130000
C         1.73590933400000   -0.05559941910000   -0.01148415800000
C         3.11981473410000   -0.44008827580000   -0.05129637380000
C         4.12576443280000    0.42371553860000    0.03187946020000
F         4.00907617040000    1.74203748360000    0.16094014780000
F         5.41332076580000    0.09145873950000   -0.00203499820000
C        -1.58416378240000   -1.73480052130000   -0.17023317270000
C        -2.94419261000000   -1.52250263370000   -0.14481200400000
H        -6.65966716450000    1.10050160750000    0.13336048210000
H        -5.09406294680000    2.03279468350000    0.22038979950000
H        -5.47918867500000   -0.98802127050000   -0.08227305620000
H        -2.94562021280000    1.83684325070000    0.18975860090000
H        -0.55097703160000    1.46685189180000    0.14534921020000
H         0.99405725420000   -1.99573699240000   -0.20106768560000
H         1.53983112250000    1.00098978990000    0.09281853470000
H         3.37098522190000   -1.48456027570000   -0.15368975970000
H        -1.20227695680000   -2.74108488760000   -0.27174753380000
H        -3.61747568410000   -2.36445364340000   -0.22666388340000
$end

$rem
BASIS = 6-31G*
GUI = 2
METHOD = B3LYP
PRINT_ORBITALS false
MOLDEN_FORMAT false
--------------------------------------------------------------
 ----------------------------------------------------------------
             Standard Nuclear Orientation (Angstroms)
    I     Atom           X                Y                Z
 ----------------------------------------------------------------
    1      C       5.3836179936    -1.3526801115     0.0034072733
    2      C       4.7715457684    -0.1734292994     0.0013471500
    3      C       3.3358749127     0.0640168080    -0.0004636394
    4      C       2.3881599087    -0.9634907093    -0.0015531830
    5      C       1.0391920345    -0.6900671217    -0.0021400477
    6      C       0.5681228340     0.6278832113    -0.0015829221
    7      C      -0.8359580591     0.9728405276    -0.0006883420
    8      C      -1.8760359005     0.1225373363    -0.0012190901
    9      C      -3.2408618196     0.5718206203     0.0011454598
   10      C      -4.2853636791    -0.2491700937     0.0007474005
   11      F      -4.2292434519    -1.5777359488    -0.0022276789
   12      F      -5.5563375548     0.1432120777     0.0035259981
   13      C       1.5175495652     1.6559586015    -0.0012157833
   14      C       2.8664144095     1.3803530478    -0.0007145238
   15      H       6.4576996021    -1.4240930542     0.0052077637
   16      H       4.8509931080    -2.2880096250     0.0033507434
   17      H       5.3742358521     0.7271967149     0.0015022365
   18      H       2.7138014110    -1.9921611984    -0.0018236648
   19      H       0.3386404356    -1.5107141365    -0.0027361787
   20      H      -1.0460029959     2.0360316605     0.0010334724
   21      H      -1.7286096436    -0.9470274006    -0.0030206611
   22      H      -3.4438796902     1.6316647228     0.0037913491
   23      H       1.1822063110     2.6837211397    -0.0011379894
   24      H       3.5775968606     2.1946691135    -0.0002704565
 ----------------------------------------------------------------
 Molecular Point Group                 C1    NOp =  1
 Largest Abelian Subgroup              C1    NOp =  1
 Nuclear Repulsion Energy =         760.18271780 hartrees
 There are       50 alpha and       50 beta electrons
 Requested basis set is 6-31G(d)
 There are 76 shells and 230 basis functions

 Total QAlloc Memory Limit   4000 MB
 Mega-Array Size       188 MB
 MEM_STATIC part       192 MB
 A cutoff of  1.0D-08 yielded   1715 shell pairs
 There are     16263 function pairs
 Smallest overlap matrix eigenvalue = 3.72E-04

 Scale SEOQF with 1.000000e-02/1.000000e-01/1.000000e+00

 Standard Electronic Orientation quadrupole field applied
 Nucleus-field energy     =     0.0000000126 hartrees
 Guess from superposition of atomic densities
 Warning:  Energy on first SCF cycle will be non-variational
 SAD guess density has 100.000000 electrons

 -----------------------------------------------------------------------
  General SCF calculation program by
  Eric Jon Sundstrom, Paul Horn, Yuezhi Mao, Dmitri Zuev, Alec White,
  David Stuck, Shaama M.S., Shane Yost, Joonho Lee, David Small,
  Daniel Levine, Susi Lehtola, Hugh Burton, Evgeny Epifanovsky,
  Bang C. Huynh
 -----------------------------------------------------------------------
 Exchange:     0.2000 Hartree-Fock + 0.0800 Slater + 0.7200 B88
 Correlation:  0.1900 VWN1RPA + 0.8100 LYP
 Using SG-1 standard quadrature grid
 A restricted SCF calculation will be
 performed using DIIS
 SCF converges when DIIS error is below 1.0e-05
 ---------------------------------------
  Cycle       Energy         DIIS error
 ---------------------------------------
    1    -666.0620219152      5.26e-02  
    2    -662.6705523782      5.92e-03  
    3    -662.4233286573      8.34e-03  
    4    -662.8974308300      1.81e-03  
    5    -662.9199341779      5.85e-04  
    6    -662.9215566217      3.51e-04  
    7    -662.9224108340      6.93e-05  
    8    -662.9224414905      2.53e-05  
    9    -662.9224456618      8.12e-06  Convergence criterion met
 ---------------------------------------
 SCF time:   CPU 28.99s  wall 29.00s 
 SCF   energy in the final basis set =     -662.9224456618
 Total energy in the final basis set =     -662.9224456618
 
 --------------------------------------------------------------
 
                    Orbital Energies (a.u.)
 --------------------------------------------------------------
 
 Alpha MOs
 -- Occupied --
-24.7413 -24.7373 -10.3567 -10.2041 -10.2001 -10.1976 -10.1953 -10.1933
-10.1905 -10.1891 -10.1883 -10.1883 -10.1877 -10.1802  -1.2842  -1.2251
 -0.8688  -0.8299  -0.7999  -0.7600  -0.7510  -0.7159  -0.6507  -0.6205
 -0.6194  -0.5840  -0.5633  -0.5575  -0.5368  -0.5185  -0.5005  -0.4793
 -0.4628  -0.4468  -0.4412  -0.4405  -0.4276  -0.4219  -0.4173  -0.4086
 -0.3846  -0.3790  -0.3682  -0.3475  -0.3384  -0.3361  -0.3018  -0.2555
 -0.2490  -0.1983
 -- Virtual --
 -0.0557  -0.0049   0.0090   0.0654   0.0921   0.1000   0.1030   0.1103
  0.1206   0.1288   0.1538   0.1576   0.1866   0.1893   0.1911   0.2078
  0.2091   0.2466   0.2561   0.2957   0.3086   0.3242   0.3394   0.3617
  0.3718   0.4200   0.4300   0.4444   0.4944   0.4994   0.5108   0.5131
  0.5366   0.5409   0.5527   0.5552   0.5632   0.5725   0.5736   0.5835
  0.5882   0.5969   0.5999   0.6119   0.6137   0.6227   0.6283   0.6311
  0.6466   0.6768   0.6935   0.6975   0.7330   0.7456   0.7960   0.8018
  0.8214   0.8315   0.8420   0.8441   0.8652   0.8837   0.8861   0.8940
  0.8976   0.9382   0.9483   0.9656   0.9763   0.9837   0.9882   1.0200
  1.0568   1.0807   1.0911   1.1093   1.1375   1.1507   1.1598   1.1757
  1.1903   1.2093   1.2288   1.2392   1.2475   1.2879   1.2923   1.3054
  1.3281   1.3539   1.3651   1.4005   1.4135   1.4406   1.4458   1.4509
  1.4672   1.4834   1.5076   1.5085   1.5192   1.5540   1.5955   1.6116
  1.6592   1.6778   1.7129   1.7788   1.7847   1.7871   1.8034   1.8213
  1.8342   1.8407   1.8725   1.8771   1.9140   1.9464   1.9545   1.9766
  1.9861   1.9943   2.0011   2.0055   2.0087   2.0267   2.0564   2.0951
  2.1363   2.1375   2.1435   2.1594   2.1766   2.2019   2.2323   2.2549
  2.2805   2.3119   2.3219   2.3271   2.3449   2.3862   2.4375   2.4987
  2.5252   2.5347   2.5575   2.5717   2.6213   2.6249   2.6261   2.6861
  2.7126   2.7361   2.7956   2.8384   2.8731   2.9114   2.9391   2.9800
  3.0328   3.0890   3.1600   3.2130   3.2690   3.4698   4.0774   4.0883
  4.0960   4.1195   4.1413   4.1561   4.2083   4.2887   4.3336   4.4050
  4.5325   4.7532   4.7768   5.2367
 --------------------------------------------------------------
 
          Ground-State Mulliken Net Atomic Charges

     Atom                 Charge (a.u.)
  ----------------------------------------
      1 C                    -0.353681
      2 C                    -0.113396
      3 C                     0.180487
      4 C                    -0.185314
      5 C                    -0.183052
      6 C                     0.186028
      7 C                    -0.200197
      8 C                    -0.107894
      9 C                    -0.226084
     10 C                     0.532526
     11 F                    -0.238212
     12 F                    -0.245184
     13 C                    -0.196555
     14 C                    -0.200666
     15 H                     0.144729
     16 H                     0.143012
     17 H                     0.126733
     18 H                     0.128146
     19 H                     0.128918
     20 H                     0.122613
     21 H                     0.142365
     22 H                     0.159070
     23 H                     0.127035
     24 H                     0.128575
  ----------------------------------------
  Sum of atomic charges =     0.000000

 -----------------------------------------------------------------
                    Cartesian Multipole Moments
 -----------------------------------------------------------------
    Charge (ESU x 10^10)
                 0.0000
    Dipole Moment (Debye)
         X       0.7620      Y       0.6520      Z       0.0018
       Tot       1.0029
    Quadrupole Moments (Debye-Ang)
        XX     -79.5803     XY      -2.0308     YY     -72.0267
        XZ       0.0054     YZ       0.0050     ZZ     -83.6924
    Octopole Moments (Debye-Ang^2)
       XXX      -7.5805    XXY       7.2214    XYY     -15.1203
       YYY      -5.6038    XXZ       0.0574    XYZ      -0.0199
       YYZ       0.0193    XZZ     -37.7042    YZZ      -5.2597
       ZZZ       0.0139
    Hexadecapole Moments (Debye-Ang^3)
      XXXX   -5527.6797   XXXY      16.9977   XXYY    -968.7672
      XYYY      26.2893   YYYY    -546.7088   XXXZ       0.4703
      XXYZ      -0.0702   XYYZ      -0.0437   YYYZ       0.0518
      XXZZ    -986.6111   XYZZ      24.1514   YYZZ    -118.8698
      XZZZ      -0.1223   YZZZ       0.0516   ZZZZ     -81.6112
 -----------------------------------------------------------------
Archival summary:
1\1\nia2015.scinet.local\SP\ProcedureUnspecified\6-31G*\21210\rhickman\TueFeb816:42:222022TueFeb816:42:222022\0\\#,ProcedureUnspecified,6-31G*,\\0,1\F\C,1,1.32975\C,2,1.32854,1,125.749\H,3,1.07912,2,117.324,1,-179.996,0\F,2,1.33017,1,109.576,3,-179.99,0\C,3,1.43688,2,123.611,1,-0.0209647,0\H,6,1.07968,3,116.069,2,-0.0229793,0\C,6,1.34342,3,122.512,2,-179.996,0\H,8,1.08374,6,118.092,3,-0.0351338,0\C,8,1.44584,6,126.93,3,179.935,0\C,10,1.39941,8,118.919,6,179.982,0\H,11,1.08109,10,119.207,8,-0.0524853,0\C,11,1.37673,10,121.174,8,179.936,0\H,13,1.08115,11,119.584,10,-179.99,0\C,13,1.39755,11,121.176,10,-0.00434724,0\C,15,1.39783,13,117.685,11,0.0376708,0\H,16,1.07898,15,119.747,13,179.974,0\C,16,1.3764,15,121.229,13,-0.0335551,0\H,18,1.079,16,119.028,15,-179.985,0\C,15,1.45518,13,119.02,11,-179.942,0\H,20,1.08368,15,114.399,13,-0.051127,0\C,20,1.32863,15,126.822,13,179.915,0\H,22,1.07635,20,122.91,15,0.0385272,0\H,22,1.07645,20,121.235,15,-179.964,0\\\@

 Total job time:  29.27s(wall), 29.17s(cpu) 
 Tue Feb  8 16:42:22 2022

        *************************************************************
        *                                                           *
        *  Thank you very much for using Q-Chem.  Have a nice day.  *
        *                                                           *
        *************************************************************


