
Running Job 1 of 1 fragments/C126/conf-0/spe_input.inp
qchem fragments/C126/conf-0/spe_input.inp_302834.0 /gpfs/fs0/scratch/a/aspuru/rhickman/descriptor_computation/qchem302834/ 0
/scinet/niagara/software/commercial/qc52/exe/qcprog.exe_s fragments/C126/conf-0/spe_input.inp_302834.0 /gpfs/fs0/scratch/a/aspuru/rhickman/descriptor_computation/qchem302834/
                  Welcome to Q-Chem
     A Quantum Leap Into The Future Of Chemistry


 Q-Chem 5.2, Q-Chem, Inc., Pleasanton, CA (2019)

 License issued to: SRG Alan Aspuru-Guzik, University of Toronto

 Yihan Shao,  Zhengting Gan,  E. Epifanovsky,  A. T. B. Gilbert,  M. Wormit,  
 J. Kussmann,  A. W. Lange,  A. Behn,  Jia Deng,  Xintian Feng,  D. Ghosh,  
 M. Goldey,  P. R. Horn,  L. D. Jacobson,  I. Kaliman,  T. Kus,  A. Landau,  
 Jie Liu,  E. I. Proynov,  R. M. Richard,  R. P. Steele,  E. J. Sundstrom,  
 H. L. Woodcock III,  P. M. Zimmerman,  D. Zuev,  B. Albrecht,  E. Alguire,  
 S. A. Baeppler,  D. Barton,  Z. Benda,  Y. A. Bernard,  E. J. Berquist,  
 K. B. Bravaya,  H. Burton,  D. Casanova,  Chun-Min Chang,  Yunqing Chen,  
 A. Chien,  K. D. Closser,  M. P. Coons,  S. Coriani,  S. Dasgupta,  
 A. L. Dempwolff,  M. Diedenhofen,  Hainam Do,  R. G. Edgar,  Po-Tung Fang,  
 S. Faraji,  S. Fatehi,  Qingguo Feng,  K. D. Fenk,  J. Fosso-Tande,  
 J. Gayvert,  Qinghui Ge,  A. Ghysels,  G. Gidofalvi,  J. Gomes,  
 J. Gonthier,  A. Gunina,  D. Hait,  M. W. D. Hanson-Heine,  
 P. H. P. Harbach,  A. W. Hauser,  M. F. Herbst,  J. E. Herr,  
 E. G. Hohenstein,  Z. C. Holden,  Kerwin Hui,  B. C. Huynh,  T.-C. Jagau,  
 Hyunjun Ji,  B. Kaduk,  K. Khistyaev,  Jaehoon Kim,  P. Klunzinger,  K. Koh,  
 D. Kosenkov,  L. Koulias,  T. Kowalczyk,  C. M. Krauter,  A. Kunitsa,  
 Ka Un Lao,  A. Laurent,  K. V. Lawler,  Joonho Lee,  D. Lefrancois,  
 S. Lehtola,  D. S. Levine,  Yi-Pei Li,  You-Sheng Lin,  Fenglai Liu,  
 E. Livshits,  A. Luenser,  P. Manohar,  E. Mansoor,  S. F. Manzer,  
 Shan-Ping Mao,  Yuezhi Mao,  N. Mardirossian,  A. V. Marenich,  
 T. Markovich,  L. A. Martinez-Martinez,  S. A. Maurer,  N. J. Mayhall,  
 S. C. McKenzie,  J.-M. Mewes,  P. Morgante,  A. F. Morrison,  
 J. W. Mullinax,  K. Nanda,  T. S. Nguyen-Beck,  R. Olivares-Amaya,  
 J. A. Parkhill,  Zheng Pei,  T. M. Perrine,  F. Plasser,  P. Pokhilko,  
 S. Prager,  A. Prociuk,  E. Ramos,  D. R. Rehn,  F. Rob,  M. Scheurer,  
 M. Schneider,  N. Sergueev,  S. M. Sharada,  S. Sharma,  D. W. Small,  
 T. Stauch,  T. Stein,  Yu-Chuan Su,  A. J. W. Thom,  A. Tkatchenko,  
 T. Tsuchimochi,  N. M. Tubman,  L. Vogt,  M. L. Vidal,  O. Vydrov,  
 M. A. Watson,  J. Wenzel,  M. de Wergifosse,  T. A. Wesolowski,  A. White,  
 J. Witte,  A. Yamada,  Jun Yang,  K. Yao,  S. Yeganeh,  S. R. Yost,  
 Zhi-Qiang You,  A. Zech,  Igor Ying Zhang,  Xing Zhang,  Yan Zhao,  
 Ying Zhu,  B. R. Brooks,  G. K. L. Chan,  C. J. Cramer,  M. S. Gordon,  
 W. J. Hehre,  A. Klamt,  M. W. Schmidt,  C. D. Sherrill,  D. G. Truhlar,  
 A. Aspuru-Guzik,  R. Baer,  A. T. Bell,  N. A. Besley,  Jeng-Da Chai,  
 A. E. DePrince, III,  R. A. DiStasio Jr.,  A. Dreuw,  B. D. Dunietz,  
 T. R. Furlani,  Chao-Ping Hsu,  Yousung Jung,  Jing Kong,  D. S. Lambrecht,  
 WanZhen Liang,  C. Ochsenfeld,  V. A. Rassolov,  L. V. Slipchenko,  
 J. E. Subotnik,  T. Van Voorhis,  J. M. Herbert,  A. I. Krylov,  
 P. M. W. Gill,  M. Head-Gordon

 Contributors to earlier versions of Q-Chem not listed above: 
 R. D. Adamson,  B. Austin,  J. Baker,  G. J. O. Beran,  K. Brandhorst,  
 S. T. Brown,  E. F. C. Byrd,  A. K. Chakraborty,  C.-L. Cheng,  
 Siu Hung Chien,  D. M. Chipman,  D. L. Crittenden,  H. Dachsel,  
 R. J. Doerksen,  A. D. Dutoi,  L. Fusti-Molnar,  W. A. Goddard III,  
 A. Golubeva-Zadorozhnaya,  S. R. Gwaltney,  G. Hawkins,  A. Heyden,  
 S. Hirata,  G. Kedziora,  F. J. Keil,  C. Kelley,  Jihan Kim,  R. A. King,  
 R. Z. Khaliullin,  P. P. Korambath,  W. Kurlancheek,  A. M. Lee,  M. S. Lee,  
 S. V. Levchenko,  Ching Yeh Lin,  D. Liotard,  R. C. Lochan,  I. Lotan,  
 P. E. Maslen,  N. Nair,  D. P. O'Neill,  D. Neuhauser,  E. Neuscamman,  
 C. M. Oana,  R. Olson,  B. Peters,  R. Peverati,  P. A. Pieniazek,  
 Y. M. Rhee,  J. Ritchie,  M. A. Rohrdanz,  E. Rosta,  N. J. Russ,  
 H. F. Schaefer III,  N. E. Schultz,  N. Shenvi,  A. C. Simmonett,  A. Sodt,  
 D. Stuck,  K. S. Thanthiriwatte,  V. Vanovschi,  Tao Wang,  A. Warshel,  
 C. F. Williams,  Q. Wu,  X. Xu,  W. Zhang

 Please cite Q-Chem as follows:
 Y. Shao et al., Mol. Phys. 113, 184-215 (2015)
 DOI: 10.1080/00268976.2014.952696

 Q-Chem 5.2.1 for Intel X86 EM64T Linux

 Parts of Q-Chem use Armadillo 8.300.2 (Tropical Shenanigans).
 http://arma.sourceforge.net/

 Q-Chem begins on Tue Feb  8 13:34:49 2022  

Host: 
0

     Scratch files written to /gpfs/fs0/scratch/a/aspuru/rhickman/descriptor_computation/qchem302834//
 Jul1719 |scratch|qcdevops|jenkins|workspace|build_RNUM -1
Processing $rem in /scinet/niagara/software/commercial/qc52/config/preferences:
	 MEM_TOTAL  4000 
NAlpha2: 82
NElect   82
Mult     1

Checking the input file for inconsistencies... 	...done.

--------------------------------------------------------------
User input:
--------------------------------------------------------------
$molecule
0 1
C        -4.10723663010000   -0.24847424860000    0.07530427930000
C        -3.03440133960000    0.52424646900000   -0.04776027310000
C        -1.64812565740000    0.08117740090000   -0.03188190420000
C        -1.26581879620000   -1.26776672820000    0.01673119280000
N        -0.01746812420000   -1.66876532860000    0.02734710240000
C         0.95318277020000   -0.75840492770000   -0.00891715300000
C         2.28159918580000   -1.25874600910000    0.01295910680000
N         3.36007624660000   -1.64712700190000    0.02830132880000
C         0.71358990590000    0.63014815440000   -0.06165971340000
C         1.82919390520000    1.56636584150000   -0.10435911490000
C         1.75200122900000    2.86745855490000    0.14829069120000
C        -0.62227473700000    1.02315028740000   -0.07829616870000
H        -5.09905555470000    0.16904789290000    0.05458389980000
H        -4.04659631740000   -1.31525539290000    0.20412498000000
H        -3.16290303910000    1.59372286160000   -0.16561265130000
H        -1.99896548620000   -2.06125133140000    0.03852685330000
H         2.78806042380000    1.12256900040000   -0.34030184140000
H         0.83141167200000    3.35640209130000    0.41963531730000
H         2.62467701430000    3.49531577510000    0.10520304000000
H        -0.87084443510000    2.07292550550000   -0.14104968110000
$end

$rem
BASIS = 6-31G*
GUI = 2
METHOD = B3LYP
PRINT_ORBITALS false
MOLDEN_FORMAT false
--------------------------------------------------------------
 ----------------------------------------------------------------
             Standard Nuclear Orientation (Angstroms)
    I     Atom           X                Y                Z
 ----------------------------------------------------------------
    1      C       4.0614067779    -0.1553411491    -0.0704273537
    2      C       2.9617140850     0.5786533754     0.0526408021
    3      C       1.5920442303     0.0867145635     0.0346607240
    4      C       1.2578773025    -1.2748672325    -0.0163246635
    5      N       0.0245479884    -1.7198776164    -0.0288361226
    6      C      -0.9778206217    -0.8445755796     0.0077402147
    7      C      -2.2876300824    -1.3916889794    -0.0162607447
    8      N      -3.3516356511    -1.8180570128    -0.0333018671
    9      C      -0.7876869540     0.5515217795     0.0627632316
   10      C      -1.9358410107     1.4475135050     0.1056604319
   11      C      -1.9045984547     2.7509024818    -0.1450065988
   12      C       0.5333788669     0.9916359448     0.0813753454
   13      H       5.0377697174     0.2970677400    -0.0480564031
   14      H       4.0387746426    -1.2234078233    -0.2008704307
   15      H       3.0520801871     1.6518371496     0.1721907017
   16      H       2.0187309818    -2.0418133782    -0.0385107783
   17      H      -2.8785960373     0.9696309447     0.3399483427
   18      H      -1.0016624770     3.2725985670    -0.4146705292
   19      H      -2.7990393141     3.3473445087    -0.1019169422
   20      H       0.7444911042     2.0494724391     0.1459236323
 ----------------------------------------------------------------
 Molecular Point Group                 C1    NOp =  1
 Largest Abelian Subgroup              C1    NOp =  1
 Nuclear Repulsion Energy =         594.08626506 hartrees
 There are       41 alpha and       41 beta electrons
 Requested basis set is 6-31G(d)
 There are 64 shells and 196 basis functions

 Total QAlloc Memory Limit   4000 MB
 Mega-Array Size       188 MB
 MEM_STATIC part       192 MB
 A cutoff of  1.0D-08 yielded   1457 shell pairs
 There are     14959 function pairs
 Smallest overlap matrix eigenvalue = 5.33E-04

 Scale SEOQF with 1.000000e-01/1.000000e-01/1.000000e+00

 Standard Electronic Orientation quadrupole field applied
 Nucleus-field energy     =     0.0000000264 hartrees
 Guess from superposition of atomic densities
 Warning:  Energy on first SCF cycle will be non-variational
 SAD guess density has 82.000000 electrons

 -----------------------------------------------------------------------
  General SCF calculation program by
  Eric Jon Sundstrom, Paul Horn, Yuezhi Mao, Dmitri Zuev, Alec White,
  David Stuck, Shaama M.S., Shane Yost, Joonho Lee, David Small,
  Daniel Levine, Susi Lehtola, Hugh Burton, Evgeny Epifanovsky,
  Bang C. Huynh
 -----------------------------------------------------------------------
 Exchange:     0.2000 Hartree-Fock + 0.0800 Slater + 0.7200 B88
 Correlation:  0.1900 VWN1RPA + 0.8100 LYP
 Using SG-1 standard quadrature grid
 A restricted SCF calculation will be
 performed using DIIS
 SCF converges when DIIS error is below 1.0e-05
 ---------------------------------------
  Cycle       Energy         DIIS error
 ---------------------------------------
    1    -498.1051368459      5.87e-02  
    2    -495.1522884181      5.83e-03  
    3    -494.9690855775      8.86e-03  
    4    -495.2776563966      3.04e-03  
    5    -495.3190474584      5.53e-04  
    6    -495.3200364864      2.82e-04  
    7    -495.3203635738      7.42e-05  
    8    -495.3203896035      2.57e-05  
    9    -495.3203929116      5.49e-06  Convergence criterion met
 ---------------------------------------
 SCF time:   CPU 24.16s  wall 24.00s 
 SCF   energy in the final basis set =     -495.3203929116
 Total energy in the final basis set =     -495.3203929116
 
 --------------------------------------------------------------
 
                    Orbital Energies (a.u.)
 --------------------------------------------------------------
 
 Alpha MOs
 -- Occupied --
-14.3525 -14.3351 -10.2650 -10.2407 -10.2330 -10.2288 -10.2254 -10.2243
-10.2152 -10.2111 -10.2057 -10.2039  -0.9789  -0.9100  -0.8546  -0.8373
 -0.7731  -0.7697  -0.6835  -0.6726  -0.6129  -0.5811  -0.5682  -0.5375
 -0.4952  -0.4827  -0.4583  -0.4504  -0.4403  -0.4302  -0.4093  -0.3920
 -0.3758  -0.3688  -0.3606  -0.3409  -0.3358  -0.3262  -0.2764  -0.2673
 -0.2465
 -- Virtual --
 -0.0785  -0.0574  -0.0038   0.0375   0.0480   0.0861   0.0973   0.1012
  0.1085   0.1204   0.1522   0.1792   0.1837   0.1883   0.2023   0.2198
  0.2542   0.2681   0.2973   0.3036   0.3511   0.3587   0.3671   0.3947
  0.4159   0.4308   0.4757   0.4775   0.5056   0.5161   0.5353   0.5361
  0.5494   0.5542   0.5604   0.5813   0.5846   0.6056   0.6085   0.6189
  0.6291   0.6431   0.6586   0.6658   0.6687   0.6825   0.6960   0.7207
  0.7329   0.7512   0.7851   0.8017   0.8147   0.8388   0.8499   0.8605
  0.8704   0.8785   0.8864   0.9037   0.9117   0.9364   0.9491   0.9628
  0.9848   1.0011   1.0110   1.0408   1.0867   1.1115   1.1156   1.1671
  1.1820   1.2083   1.2209   1.2470   1.2702   1.2861   1.3415   1.3587
  1.3881   1.4266   1.4566   1.4607   1.4727   1.4776   1.4840   1.5087
  1.5252   1.5320   1.5851   1.6330   1.6493   1.6546   1.7160   1.7453
  1.7863   1.7910   1.8098   1.8291   1.8709   1.9177   1.9305   1.9456
  1.9696   1.9730   1.9944   1.9992   2.0113   2.0794   2.1100   2.1110
  2.1427   2.1715   2.1911   2.2115   2.2242   2.2710   2.2962   2.3170
  2.3470   2.3573   2.3920   2.4577   2.4806   2.5005   2.5341   2.5967
  2.6294   2.6665   2.6898   2.7008   2.7454   2.7913   2.8345   2.8694
  2.8893   2.9230   3.0206   3.0970   3.2518   3.3211   3.5135   4.0367
  4.0576   4.0977   4.1120   4.1513   4.2135   4.2369   4.2595   4.2939
  4.4365   4.6211   4.7874
 --------------------------------------------------------------
 
          Ground-State Mulliken Net Atomic Charges

     Atom                 Charge (a.u.)
  ----------------------------------------
      1 C                    -0.342690
      2 C                    -0.117644
      3 C                     0.165406
      4 C                    -0.002622
      5 N                    -0.456347
      6 C                     0.226011
      7 C                     0.297371
      8 N                    -0.482065
      9 C                     0.178703
     10 C                    -0.129566
     11 C                    -0.338712
     12 C                    -0.229327
     13 H                     0.158169
     14 H                     0.157605
     15 H                     0.137986
     16 H                     0.150884
     17 H                     0.167438
     18 H                     0.149339
     19 H                     0.161495
     20 H                     0.148566
  ----------------------------------------
  Sum of atomic charges =     0.000000

 -----------------------------------------------------------------
                    Cartesian Multipole Moments
 -----------------------------------------------------------------
    Charge (ESU x 10^10)
                 0.0000
    Dipole Moment (Debye)
         X       4.3912      Y       4.0151      Z       0.1081
       Tot       5.9511
    Quadrupole Moments (Debye-Ang)
        XX     -71.1983     XY     -10.2308     YY     -69.0286
        XZ      -0.7399     YZ      -0.1955     ZZ     -71.1531
    Octopole Moments (Debye-Ang^2)
       XXX      80.2103    XXY      33.2483    XYY      18.9322
       YYY      30.6468    XXZ       1.4749    XYZ       1.6783
       YYZ      -1.5693    XZZ      -3.5839    YZZ      -3.8194
       ZZZ      -0.0339
    Hexadecapole Moments (Debye-Ang^3)
      XXXX   -2122.6321   XXXY    -145.9814   XXYY    -514.5354
      XYYY     -61.9936   YYYY    -891.6398   XXXZ     -12.5848
      XXYZ       4.4905   XYYZ       1.3225   YYYZ      -7.3896
      XXZZ    -387.3960   XYZZ       4.9413   YYZZ    -171.4163
      XZZZ      -0.3482   YZZZ       0.2005   ZZZZ     -74.0878
 -----------------------------------------------------------------
Archival summary:
1\1\nia2015.scinet.local\SP\ProcedureUnspecified\6-31G*\2108\rhickman\TueFeb813:35:142022TueFeb813:35:142022\0\\#,ProcedureUnspecified,6-31G*,\\0,1\N\C,1,1.31122\H,2,1.08055,1,114.912\C,1,1.33125,2,119,3,179.448,0\C,2,1.40292,1,123.627,3,-179.414,0\C,5,1.3935,2,116.777,1,0.372694,0\H,6,1.08063,5,119.293,2,178.515,0\C,6,1.39257,5,120.999,2,-0.684997,0\C,4,1.41969,1,116.157,2,179.645,0\N,9,1.14638,4,179.158,1,174.251,0\C,5,1.45545,2,123.549,1,179.803,0\H,11,1.0836,5,114.494,2,-175.39,0\C,11,1.32786,5,126.255,2,5.09347,0\H,13,1.07624,11,122.846,5,0.0659717,0\H,13,1.07632,11,121.13,5,179.825,0\C,8,1.45702,6,123.56,5,-179.831,0\H,16,1.08261,8,114.907,6,-164.956,0\C,16,1.32764,8,125.423,6,16.6794,0\H,18,1.07593,16,121.138,8,179.434,0\H,18,1.07712,16,122.854,8,0.33627,0\\\@

 Total job time:  24.40s(wall), 24.31s(cpu) 
 Tue Feb  8 13:35:14 2022

        *************************************************************
        *                                                           *
        *  Thank you very much for using Q-Chem.  Have a nice day.  *
        *                                                           *
        *************************************************************


