
Running Job 1 of 1 fragments/A005/conf-2/spe_input.inp
qchem fragments/A005/conf-2/spe_input.inp_363018.0 /gpfs/fs0/scratch/a/aspuru/rhickman/descriptor_computation/qchem363018/ 0
/scinet/niagara/software/commercial/qc52/exe/qcprog.exe_s fragments/A005/conf-2/spe_input.inp_363018.0 /gpfs/fs0/scratch/a/aspuru/rhickman/descriptor_computation/qchem363018/
                  Welcome to Q-Chem
     A Quantum Leap Into The Future Of Chemistry


 Q-Chem 5.2, Q-Chem, Inc., Pleasanton, CA (2019)

 License issued to: SRG Alan Aspuru-Guzik, University of Toronto

 Yihan Shao,  Zhengting Gan,  E. Epifanovsky,  A. T. B. Gilbert,  M. Wormit,  
 J. Kussmann,  A. W. Lange,  A. Behn,  Jia Deng,  Xintian Feng,  D. Ghosh,  
 M. Goldey,  P. R. Horn,  L. D. Jacobson,  I. Kaliman,  T. Kus,  A. Landau,  
 Jie Liu,  E. I. Proynov,  R. M. Richard,  R. P. Steele,  E. J. Sundstrom,  
 H. L. Woodcock III,  P. M. Zimmerman,  D. Zuev,  B. Albrecht,  E. Alguire,  
 S. A. Baeppler,  D. Barton,  Z. Benda,  Y. A. Bernard,  E. J. Berquist,  
 K. B. Bravaya,  H. Burton,  D. Casanova,  Chun-Min Chang,  Yunqing Chen,  
 A. Chien,  K. D. Closser,  M. P. Coons,  S. Coriani,  S. Dasgupta,  
 A. L. Dempwolff,  M. Diedenhofen,  Hainam Do,  R. G. Edgar,  Po-Tung Fang,  
 S. Faraji,  S. Fatehi,  Qingguo Feng,  K. D. Fenk,  J. Fosso-Tande,  
 J. Gayvert,  Qinghui Ge,  A. Ghysels,  G. Gidofalvi,  J. Gomes,  
 J. Gonthier,  A. Gunina,  D. Hait,  M. W. D. Hanson-Heine,  
 P. H. P. Harbach,  A. W. Hauser,  M. F. Herbst,  J. E. Herr,  
 E. G. Hohenstein,  Z. C. Holden,  Kerwin Hui,  B. C. Huynh,  T.-C. Jagau,  
 Hyunjun Ji,  B. Kaduk,  K. Khistyaev,  Jaehoon Kim,  P. Klunzinger,  K. Koh,  
 D. Kosenkov,  L. Koulias,  T. Kowalczyk,  C. M. Krauter,  A. Kunitsa,  
 Ka Un Lao,  A. Laurent,  K. V. Lawler,  Joonho Lee,  D. Lefrancois,  
 S. Lehtola,  D. S. Levine,  Yi-Pei Li,  You-Sheng Lin,  Fenglai Liu,  
 E. Livshits,  A. Luenser,  P. Manohar,  E. Mansoor,  S. F. Manzer,  
 Shan-Ping Mao,  Yuezhi Mao,  N. Mardirossian,  A. V. Marenich,  
 T. Markovich,  L. A. Martinez-Martinez,  S. A. Maurer,  N. J. Mayhall,  
 S. C. McKenzie,  J.-M. Mewes,  P. Morgante,  A. F. Morrison,  
 J. W. Mullinax,  K. Nanda,  T. S. Nguyen-Beck,  R. Olivares-Amaya,  
 J. A. Parkhill,  Zheng Pei,  T. M. Perrine,  F. Plasser,  P. Pokhilko,  
 S. Prager,  A. Prociuk,  E. Ramos,  D. R. Rehn,  F. Rob,  M. Scheurer,  
 M. Schneider,  N. Sergueev,  S. M. Sharada,  S. Sharma,  D. W. Small,  
 T. Stauch,  T. Stein,  Yu-Chuan Su,  A. J. W. Thom,  A. Tkatchenko,  
 T. Tsuchimochi,  N. M. Tubman,  L. Vogt,  M. L. Vidal,  O. Vydrov,  
 M. A. Watson,  J. Wenzel,  M. de Wergifosse,  T. A. Wesolowski,  A. White,  
 J. Witte,  A. Yamada,  Jun Yang,  K. Yao,  S. Yeganeh,  S. R. Yost,  
 Zhi-Qiang You,  A. Zech,  Igor Ying Zhang,  Xing Zhang,  Yan Zhao,  
 Ying Zhu,  B. R. Brooks,  G. K. L. Chan,  C. J. Cramer,  M. S. Gordon,  
 W. J. Hehre,  A. Klamt,  M. W. Schmidt,  C. D. Sherrill,  D. G. Truhlar,  
 A. Aspuru-Guzik,  R. Baer,  A. T. Bell,  N. A. Besley,  Jeng-Da Chai,  
 A. E. DePrince, III,  R. A. DiStasio Jr.,  A. Dreuw,  B. D. Dunietz,  
 T. R. Furlani,  Chao-Ping Hsu,  Yousung Jung,  Jing Kong,  D. S. Lambrecht,  
 WanZhen Liang,  C. Ochsenfeld,  V. A. Rassolov,  L. V. Slipchenko,  
 J. E. Subotnik,  T. Van Voorhis,  J. M. Herbert,  A. I. Krylov,  
 P. M. W. Gill,  M. Head-Gordon

 Contributors to earlier versions of Q-Chem not listed above: 
 R. D. Adamson,  B. Austin,  J. Baker,  G. J. O. Beran,  K. Brandhorst,  
 S. T. Brown,  E. F. C. Byrd,  A. K. Chakraborty,  C.-L. Cheng,  
 Siu Hung Chien,  D. M. Chipman,  D. L. Crittenden,  H. Dachsel,  
 R. J. Doerksen,  A. D. Dutoi,  L. Fusti-Molnar,  W. A. Goddard III,  
 A. Golubeva-Zadorozhnaya,  S. R. Gwaltney,  G. Hawkins,  A. Heyden,  
 S. Hirata,  G. Kedziora,  F. J. Keil,  C. Kelley,  Jihan Kim,  R. A. King,  
 R. Z. Khaliullin,  P. P. Korambath,  W. Kurlancheek,  A. M. Lee,  M. S. Lee,  
 S. V. Levchenko,  Ching Yeh Lin,  D. Liotard,  R. C. Lochan,  I. Lotan,  
 P. E. Maslen,  N. Nair,  D. P. O'Neill,  D. Neuhauser,  E. Neuscamman,  
 C. M. Oana,  R. Olson,  B. Peters,  R. Peverati,  P. A. Pieniazek,  
 Y. M. Rhee,  J. Ritchie,  M. A. Rohrdanz,  E. Rosta,  N. J. Russ,  
 H. F. Schaefer III,  N. E. Schultz,  N. Shenvi,  A. C. Simmonett,  A. Sodt,  
 D. Stuck,  K. S. Thanthiriwatte,  V. Vanovschi,  Tao Wang,  A. Warshel,  
 C. F. Williams,  Q. Wu,  X. Xu,  W. Zhang

 Please cite Q-Chem as follows:
 Y. Shao et al., Mol. Phys. 113, 184-215 (2015)
 DOI: 10.1080/00268976.2014.952696

 Q-Chem 5.2.1 for Intel X86 EM64T Linux

 Parts of Q-Chem use Armadillo 8.300.2 (Tropical Shenanigans).
 http://arma.sourceforge.net/

 Q-Chem begins on Tue Feb  8 16:46:56 2022  

Host: 
0

     Scratch files written to /gpfs/fs0/scratch/a/aspuru/rhickman/descriptor_computation/qchem363018//
 Jul1719 |scratch|qcdevops|jenkins|workspace|build_RNUM -1
Processing $rem in /scinet/niagara/software/commercial/qc52/config/preferences:
	 MEM_TOTAL  4000 
NAlpha2: 200
NElect   200
Mult     1

Checking the input file for inconsistencies... 	...done.

--------------------------------------------------------------
User input:
--------------------------------------------------------------
$molecule
0 1
F         6.79963581060000   -3.24093099220000    0.35709454120000
C         5.59535122220000   -2.71005036030000    0.13681613600000
F         4.86311586570000   -3.58107478720000   -0.55090607060000
C         5.24793020590000   -1.50365061240000    0.56258621320000
C         3.98375028790000   -0.81277501850000    0.39422424400000
C         2.89061669100000   -1.34906455890000   -0.29236767010000
C         1.71754103530000   -0.63935330250000   -0.41886324060000
C         1.58617308220000    0.63571389170000    0.13846931290000
N         0.40012929140000    1.35091677450000    0.01015607800000
C        -0.83179377850000    0.68296737010000   -0.01507345000000
C        -1.06029745420000   -0.42017755940000    0.80659381170000
C        -2.27767698460000   -1.06768400950000    0.78226652010000
C        -3.30434239870000   -0.63846800920000   -0.05709134090000
C        -4.60040290450000   -1.33034940000000   -0.07843914500000
C        -5.19025524860000   -1.77176626310000    1.10414781580000
C        -6.41101684870000   -2.41977212040000    1.08344582110000
C        -7.06141050960000   -2.64271971590000   -0.11864785730000
C        -6.48349648420000   -2.21073568950000   -1.30066535110000
C        -5.26520399210000   -1.55803148640000   -1.28154052310000
C        -3.06920594630000    0.46582404650000   -0.87435402820000
C        -1.85455365330000    1.11866020710000   -0.85658559410000
C         0.42403283350000    2.74904855600000   -0.09479576940000
C         1.41542788710000    3.38613708660000   -0.83983006850000
C         1.43194754960000    4.76381881790000   -0.93971664390000
C         0.46061620120000    5.52474485010000   -0.30997344070000
C        -0.53029940720000    4.89556710860000    0.42563966670000
C        -0.55058331410000    3.51891273290000    0.53843232210000
C         2.67556097080000    1.17574374850000    0.82774774560000
C         3.84691371820000    0.46386261110000    0.94835535930000
H         6.01695328010000   -0.97414015030000    1.10690322420000
H         2.95681288000000   -2.32587849700000   -0.74230277380000
H         0.88861532320000   -1.06679310620000   -0.96314781090000
H        -0.27658856540000   -0.76342236340000    1.46614010110000
H        -2.43173301370000   -1.92885776410000    1.41554115510000
H        -4.69650398960000   -1.58583633870000    2.04701076430000
H        -6.85875243830000   -2.75091920880000    2.00933451630000
H        -8.01422029800000   -3.15091217430000   -0.13421904680000
H        -6.98408396190000   -2.38558467120000   -2.24205833040000
H        -4.81172346620000   -1.23915142010000   -2.20889782190000
H        -3.85433696890000    0.82600318640000   -1.52264515790000
H        -1.68828059060000    1.97308735520000   -1.49635787800000
H         2.16655359080000    2.79356928380000   -1.34142104240000
H         2.20395494670000    5.24568192490000   -1.52131868510000
H         0.47516634210000    6.60076699960000   -0.39305648270000
H        -1.28954029700000    5.48121247980000    0.92258981590000
H        -1.31932047490000    3.02996649470000    1.11875392650000
H         2.58977149510000    2.15551239580000    1.27372322360000
H         4.67462790310000    0.89722958690000    1.49068188670000
$end

$rem
BASIS = 6-31G*
GUI = 2
METHOD = B3LYP
PRINT_ORBITALS false
MOLDEN_FORMAT false
--------------------------------------------------------------
 ----------------------------------------------------------------
             Standard Nuclear Orientation (Angstroms)
    I     Atom           X                Y                Z
 ----------------------------------------------------------------
    1      F      -6.7376517478     3.5821293826     0.0374173126
    2      C      -5.5517539660     2.9932546730    -0.1285080280
    3      F      -4.7638902387     3.8067110014    -0.8251955849
    4      C      -5.2685993566     1.7898313060     0.3500079487
    5      C      -4.0312216797     1.0406066895     0.2434027769
    6      C      -2.8974026052     1.5047014875    -0.4296695173
    7      C      -1.7529799124     0.7420509210    -0.4964415504
    8      C      -1.6921951797    -0.5159821928     0.1096371283
    9      N      -0.5350079725    -1.2847287826     0.0416241008
   10      C       0.7248043357    -0.6706198221     0.0285658213
   11      C       0.9778615587     0.4514942378     0.8166659626
   12      C       2.2222427429     1.0458378536     0.8048137139
   13      C       3.2522626999     0.5431024592     0.0116517647
   14      C       4.5770530529     1.1785490217     0.0034903095
   15      C       5.1524603829     1.6380780327     1.1862946244
   16      C       6.4001404625     2.2329116622     1.1781447745
   17      C       7.0925445326     2.3837730706    -0.0116300761
   18      C       6.5294509404     1.9331805322    -1.1938534671
   19      C       5.2840777022     1.3334937831    -1.1870393250
   20      C       2.9924101095    -0.5797151742    -0.7722012757
   21      C       1.7507041138    -1.1797369702    -0.7666310558
   22      C      -0.6162806180    -2.6835344143    -0.0140203930
   23      C      -1.6132450685    -3.3053786862    -0.7644826777
   24      C      -1.6864015945    -4.6838902829    -0.8155814087
   25      C      -0.7665839674    -5.4612777667    -0.1309838994
   26      C       0.2298210450    -4.8476593270     0.6103355183
   27      C       0.3063355907    -3.4698557228     0.6744732042
   28      C      -2.8225090974    -0.9838700007     0.7856359616
   29      C      -3.9649547001    -0.2193427472     0.8464991884
   30      H      -6.0745060680     1.3136106061     0.8901811099
   31      H      -2.9089357591     2.4661682699    -0.9159180292
   32      H      -0.8916525934     1.1138404113    -1.0311902201
   33      H       0.1917443435     0.8515302953     1.4403716644
   34      H       2.3957243037     1.9225428222     1.4111822529
   35      H       4.6252596405     1.5080164991     2.1203685813
   36      H       6.8359616360     2.5788548149     2.1043081878
   37      H       8.0664525049     2.8504822279    -0.0174912833
   38      H       7.0629603276     2.0519449455    -2.1258639169
   39      H       4.8430888523     0.9999860792    -2.1152753345
   40      H       3.7789058828    -0.9963035782    -1.3840179350
   41      H       1.5654922756    -2.0494313501    -1.3800879154
   42      H      -2.3239523813    -2.7006270582    -1.3086246747
   43      H      -2.4620918424    -5.1539579485    -1.4019170110
   44      H      -0.8252273314    -6.5380657059    -0.1760044998
   45      H       0.9490598188    -5.4460122570     1.1498316143
   46      H       1.0791008186    -2.9926256082     1.2591814484
   47      H      -2.7914263147    -1.9492578122     1.2686067655
   48      H      -4.8252735730    -0.5971733682     1.3795388010
 ----------------------------------------------------------------
 Molecular Point Group                 C1    NOp =  1
 Largest Abelian Subgroup              C1    NOp =  1
 Nuclear Repulsion Energy =        2416.07216447 hartrees
 There are      100 alpha and      100 beta electrons
 Requested basis set is 6-31G(d)
 There are 154 shells and 473 basis functions

 Total QAlloc Memory Limit   4000 MB
 Mega-Array Size       188 MB
 MEM_STATIC part       192 MB
 A cutoff of  1.0D-08 yielded   4763 shell pairs
 There are     47046 function pairs
 Smallest overlap matrix eigenvalue = 3.50E-04

 Scale SEOQF with 1.000000e-02/1.000000e-02/1.000000e-01

 Standard Electronic Orientation quadrupole field applied
 Nucleus-field energy     =     0.0000000076 hartrees
 Guess from superposition of atomic densities
 Warning:  Energy on first SCF cycle will be non-variational
 SAD guess density has 200.000000 electrons

 -----------------------------------------------------------------------
  General SCF calculation program by
  Eric Jon Sundstrom, Paul Horn, Yuezhi Mao, Dmitri Zuev, Alec White,
  David Stuck, Shaama M.S., Shane Yost, Joonho Lee, David Small,
  Daniel Levine, Susi Lehtola, Hugh Burton, Evgeny Epifanovsky,
  Bang C. Huynh
 -----------------------------------------------------------------------
 Exchange:     0.2000 Hartree-Fock + 0.0800 Slater + 0.7200 B88
 Correlation:  0.1900 VWN1RPA + 0.8100 LYP
 Using SG-1 standard quadrature grid
 A restricted SCF calculation will be
 performed using DIIS
 SCF converges when DIIS error is below 1.0e-05
 ---------------------------------------
  Cycle       Energy         DIIS error
 ---------------------------------------
    1   -1264.1050276641      3.80e-02  
    2   -1256.2013948111      3.72e-03  
    3   -1255.9984065633      4.65e-03  
    4   -1256.5733302988      1.23e-03  
    5   -1256.6126690898      4.28e-04  
    6   -1256.6170761251      2.15e-04  
    7   -1256.6184448924      4.64e-05  
    8   -1256.6184954243      2.18e-05  
    9   -1256.6185092721      4.40e-06  Convergence criterion met
 ---------------------------------------
 SCF time:   CPU 162.00s  wall 162.00s 
 SCF   energy in the final basis set =    -1256.6185092721
 Total energy in the final basis set =    -1256.6185092721
 
 --------------------------------------------------------------
 
                    Orbital Energies (a.u.)
 --------------------------------------------------------------
 
 Alpha MOs
 -- Occupied --
-24.7397 -24.7289 -14.3689 -10.3504 -10.2285 -10.2278 -10.2278 -10.1994
-10.1990 -10.1925 -10.1912 -10.1900 -10.1888 -10.1887 -10.1880 -10.1880
-10.1871 -10.1865 -10.1863 -10.1859 -10.1857 -10.1857 -10.1854 -10.1852
-10.1850 -10.1838 -10.1838 -10.1836 -10.1835  -1.2796  -1.2190  -0.9823
 -0.8718  -0.8657  -0.8555  -0.8431  -0.8031  -0.7794  -0.7603  -0.7534
 -0.7502  -0.7461  -0.7428  -0.7332  -0.7037  -0.6491  -0.6392  -0.6243
 -0.6152  -0.6119  -0.6056  -0.5934  -0.5891  -0.5721  -0.5667  -0.5425
 -0.5392  -0.5290  -0.5168  -0.5136  -0.4948  -0.4771  -0.4770  -0.4657
 -0.4590  -0.4514  -0.4459  -0.4430  -0.4420  -0.4361  -0.4330  -0.4323
 -0.4273  -0.4255  -0.4249  -0.4186  -0.4179  -0.4071  -0.3871  -0.3838
 -0.3787  -0.3735  -0.3707  -0.3613  -0.3607  -0.3552  -0.3469  -0.3434
 -0.3375  -0.3345  -0.3245  -0.2913  -0.2714  -0.2615  -0.2523  -0.2512
 -0.2502  -0.2403  -0.2252  -0.1772
 -- Virtual --
 -0.0314  -0.0225  -0.0142   0.0026   0.0068   0.0076   0.0092   0.0373
  0.0756   0.0889   0.0958   0.0996   0.1093   0.1228   0.1295   0.1428
  0.1445   0.1450   0.1574   0.1580   0.1589   0.1611   0.1635   0.1783
  0.1787   0.1827   0.1860   0.1878   0.1905   0.1919   0.1966   0.1985
  0.2068   0.2166   0.2195   0.2557   0.2651   0.2686   0.2816   0.2921
  0.2951   0.3077   0.3093   0.3138   0.3187   0.3229   0.3297   0.3388
  0.3512   0.3681   0.3739   0.3872   0.3895   0.3979   0.4160   0.4224
  0.4559   0.4670   0.4841   0.5001   0.5052   0.5101   0.5158   0.5253
  0.5300   0.5324   0.5415   0.5442   0.5472   0.5494   0.5526   0.5601
  0.5613   0.5682   0.5721   0.5748   0.5772   0.5806   0.5836   0.5849
  0.5877   0.5910   0.5952   0.5965   0.5993   0.6028   0.6039   0.6065
  0.6081   0.6119   0.6138   0.6150   0.6204   0.6215   0.6246   0.6282
  0.6328   0.6376   0.6451   0.6466   0.6559   0.6594   0.6661   0.6771
  0.6773   0.6886   0.6912   0.6999   0.7044   0.7353   0.7510   0.7647
  0.7820   0.8041   0.8056   0.8130   0.8145   0.8183   0.8259   0.8317
  0.8336   0.8368   0.8426   0.8461   0.8463   0.8476   0.8487   0.8544
  0.8662   0.8702   0.8719   0.8743   0.8858   0.8886   0.9002   0.9024
  0.9205   0.9215   0.9290   0.9459   0.9484   0.9616   0.9681   0.9757
  0.9822   0.9914   1.0057   1.0117   1.0159   1.0212   1.0228   1.0352
  1.0433   1.0462   1.0710   1.0906   1.0997   1.1121   1.1231   1.1269
  1.1362   1.1535   1.1573   1.1609   1.1648   1.1680   1.1758   1.1810
  1.1927   1.1951   1.2006   1.2074   1.2234   1.2259   1.2281   1.2492
  1.2554   1.2641   1.2861   1.3047   1.3069   1.3135   1.3244   1.3472
  1.3624   1.3661   1.4027   1.4077   1.4178   1.4233   1.4291   1.4314
  1.4402   1.4470   1.4529   1.4610   1.4682   1.4710   1.4752   1.4789
  1.4843   1.4932   1.4943   1.4997   1.5009   1.5114   1.5130   1.5141
  1.5175   1.5257   1.5316   1.5345   1.5987   1.6494   1.6672   1.7061
  1.7159   1.7248   1.7388   1.7657   1.7758   1.7870   1.7910   1.7939
  1.7958   1.8004   1.8162   1.8405   1.8408   1.8418   1.8447   1.8497
  1.8568   1.8608   1.8766   1.8856   1.8973   1.9084   1.9122   1.9267
  1.9346   1.9368   1.9469   1.9613   1.9664   1.9752   1.9772   1.9884
  1.9964   1.9991   2.0127   2.0193   2.0378   2.0421   2.0688   2.0752
  2.0780   2.0820   2.0885   2.0929   2.1016   2.1346   2.1368   2.1403
  2.1466   2.1540   2.1618   2.1660   2.1691   2.1726   2.1759   2.1833
  2.1982   2.2143   2.2359   2.2418   2.2529   2.2618   2.2796   2.2968
  2.3051   2.3073   2.3191   2.3218   2.3253   2.3292   2.3314   2.3345
  2.3566   2.3587   2.3677   2.4114   2.4387   2.4491   2.4892   2.5154
  2.5261   2.5411   2.5572   2.5696   2.5910   2.5973   2.6033   2.6205
  2.6322   2.6374   2.6431   2.6651   2.6711   2.6766   2.6802   2.6953
  2.7114   2.7256   2.7456   2.7487   2.7608   2.7632   2.7667   2.7696
  2.7728   2.7804   2.7883   2.7951   2.8468   2.8619   2.8710   2.8894
  2.9201   2.9516   2.9651   2.9999   3.0014   3.0249   3.0616   3.1486
  3.1823   3.2409   3.2854   3.3335   3.4138   3.4574   3.4872   3.5110
  4.0828   4.1042   4.1057   4.1184   4.1240   4.1257   4.1294   4.1351
  4.1361   4.1479   4.1787   4.1915   4.2102   4.2864   4.3155   4.3366
  4.3374   4.3458   4.3512   4.3768   4.4117   4.4635   4.5132   4.6808
  4.7098   4.7492   4.8005   4.8280   5.2861
 --------------------------------------------------------------
 
          Ground-State Mulliken Net Atomic Charges

     Atom                 Charge (a.u.)
  ----------------------------------------
      1 F                    -0.252037
      2 C                     0.536750
      3 F                    -0.237832
      4 C                    -0.298759
      5 C                     0.198711
      6 C                    -0.205716
      7 C                    -0.176741
      8 C                     0.299029
      9 N                    -0.653218
     10 C                     0.284656
     11 C                    -0.173254
     12 C                    -0.184841
     13 C                     0.091658
     14 C                     0.087424
     15 C                    -0.171538
     16 C                    -0.132811
     17 C                    -0.125151
     18 C                    -0.133034
     19 C                    -0.171559
     20 C                    -0.184556
     21 C                    -0.172782
     22 C                     0.276792
     23 C                    -0.165656
     24 C                    -0.138395
     25 C                    -0.127398
     26 C                    -0.138222
     27 C                    -0.164981
     28 C                    -0.176778
     29 C                    -0.205783
     30 H                     0.156814
     31 H                     0.140359
     32 H                     0.149960
     33 H                     0.148450
     34 H                     0.134988
     35 H                     0.129397
     36 H                     0.127941
     37 H                     0.126753
     38 H                     0.127982
     39 H                     0.129671
     40 H                     0.134643
     41 H                     0.148197
     42 H                     0.147243
     43 H                     0.130990
     44 H                     0.126053
     45 H                     0.131296
     46 H                     0.146968
     47 H                     0.149407
     48 H                     0.128909
  ----------------------------------------
  Sum of atomic charges =     0.000000

 -----------------------------------------------------------------
                    Cartesian Multipole Moments
 -----------------------------------------------------------------
    Charge (ESU x 10^10)
                 0.0000
    Dipole Moment (Debye)
         X       0.7889      Y      -1.4750      Z       0.3347
       Tot       1.7059
    Quadrupole Moments (Debye-Ang)
        XX    -158.5967     XY      10.1212     YY    -160.3543
        XZ      -2.2682     YZ       2.0714     ZZ    -159.2945
    Octopole Moments (Debye-Ang^2)
       XXX     -16.7034    XXY       5.7085    XYY      -5.1498
       YYY     -18.1213    XXZ       5.2925    XYZ      -1.1666
       YYZ       2.3705    XZZ      -8.8719    YZZ      26.4774
       ZZZ      -7.4793
    Hexadecapole Moments (Debye-Ang^3)
      XXXX  -14112.3934   XXXY     329.9550   XXYY   -3535.9786
      XYYY    -215.6013   YYYY   -5925.6980   XXXZ    -142.7268
      XXYZ      41.8308   XYYZ      77.8581   YYYZ      -1.5411
      XXZZ   -2392.4301   XYZZ     -66.7128   YYZZ   -1144.7293
      XZZZ      31.4095   YZZZ     -19.3430   ZZZZ    -709.8905
 -----------------------------------------------------------------
Archival summary:
1\1\nia2015.scinet.local\SP\ProcedureUnspecified\6-31G*\212619\rhickman\TueFeb816:49:402022TueFeb816:49:402022\0\\#,ProcedureUnspecified,6-31G*,\\0,1\N\C,1,1.39093\C,2,1.39768,1,120.76\H,3,1.07991,2,119.491,1,0.632612,0\C,3,1.376,2,120.453,1,-179.857,0\H,5,1.08029,3,119.255,2,-179.61,0\C,2,1.39774,1,120.825,3,-179.974,0\H,7,1.07985,2,119.336,1,0.590253,0\C,7,1.37688,2,120.907,1,-179.971,0\H,9,1.07749,7,118.768,2,-179.521,0\C,9,1.39784,7,120.906,2,-0.152556,0\C,1,1.40158,2,120.404,3,-146.672,0\C,12,1.39428,1,120.444,2,-141.934,0\H,13,1.08028,12,119.452,1,0.434642,0\C,13,1.37909,12,120.393,1,-179.586,0\H,15,1.08002,13,119.35,12,179.153,0\C,15,1.3938,13,121.07,12,0.0147246,0\C,17,1.39384,15,118.217,13,0.0348057,0\H,18,1.08,17,119.576,15,-179.22,0\C,18,1.37908,17,121.081,15,-0.0063879,0\H,20,1.08029,18,120.132,17,179.747,0\C,1,1.40227,2,120.334,3,33.2977,0\C,22,1.39411,1,120.31,2,-141.518,0\H,23,1.08018,22,119.445,1,0.58229,0\C,23,1.38142,22,120.197,1,-179.539,0\H,25,1.07999,23,119.505,22,-179.868,0\C,25,1.38525,23,120.431,22,-0.359683,0\H,27,1.07932,25,120.221,23,-179.79,0\C,27,1.3853,25,119.57,23,0.288176,0\H,29,1.08002,27,120.062,25,179.546,0\C,29,1.3814,27,120.434,25,0.118582,0\H,31,1.08024,29,120.344,27,179.251,0\C,11,1.45045,9,123.77,7,-179.876,0\H,33,1.08077,11,116.44,9,179.429,0\C,33,1.32566,11,128.653,9,-0.61478,0\F,35,1.32959,33,128.168,11,-0.00415501,0\F,35,1.33441,33,123.062,11,-179.965,0\C,17,1.46933,15,120.888,13,179.949,0\C,38,1.39329,17,120.689,15,40.8348,0\H,39,1.08043,38,119.516,17,1.22788,0\C,39,1.38225,38,120.641,17,179.905,0\H,41,1.08045,39,119.79,38,-179.613,0\C,41,1.38483,39,120.219,38,0.24994,0\H,43,1.07998,41,120.176,39,179.881,0\C,43,1.38483,41,119.65,39,-0.127664,0\H,45,1.08046,43,119.993,41,179.754,0\C,45,1.38224,43,120.216,41,-0.118965,0\H,47,1.08044,45,119.825,43,178.937,0\\\@

 Total job time:  163.59s(wall), 162.52s(cpu) 
 Tue Feb  8 16:49:40 2022

        *************************************************************
        *                                                           *
        *  Thank you very much for using Q-Chem.  Have a nice day.  *
        *                                                           *
        *************************************************************


