
Running Job 1 of 1 tidas/B033/conf-3/spe_input.inp
qchem tidas/B033/conf-3/spe_input.inp_246749.0 /home/a/aspuru/seifridm/acdc_laser/descriptor_computation/qchem246749/ 0
/gpfs/fs1/scinet/niagara/software/commercial/qc54/exe/qcprog.exe_s tidas/B033/conf-3/spe_input.inp_246749.0 /home/a/aspuru/seifridm/acdc_laser/descriptor_computation/qchem246749/
                  Welcome to Q-Chem
     A Quantum Leap Into The Future Of Chemistry


 Q-Chem 5.4, Q-Chem, Inc., Pleasanton, CA (2021)

 License issued to: SRG Alan Aspuru-Guzik, University of Toronto

 E. Epifanovsky,  A. T. B. Gilbert,  Xintian Feng,  Joonho Lee,  Yuezhi Mao,  
 N. Mardirossian,  P. Pokhilko,  A. White,  M. Wormit,  M. P. Coons,  
 A. L. Dempwolff,  Zhengting Gan,  D. Hait,  P. R. Horn,  L. D. Jacobson,  
 I. Kaliman,  J. Kussmann,  A. W. Lange,  Ka Un Lao,  D. S. Levine,  Jie Liu,  
 S. C. McKenzie,  A. F. Morrison,  K. Nanda,  F. Plasser,  D. R. Rehn,  
 M. L. Vidal,  Zhi-Qiang You,  Ying Zhu,  B. Alam,  B. Albrecht,  
 A. Aldossary,  E. Alguire,  J. H. Andersen,  D. Barton,  K. Begam,  A. Behn,  
 Y. A. Bernard,  E. J. Berquist,  H. Burton,  A. Carreras,  K. Carter-Fenk,  
 Romit Chakraborty,  A. D. Chien,  K. D. Closser,  V. Cofer-Shabica,  
 S. Dasgupta,  Jia Deng,  M. de Wergifosse,  M. Diedenhofen,  Hainam Do,  
 S. Ehlert,  Po-Tung Fang,  S. Fatehi,  Qingguo Feng,  T. Friedhoff,  
 J. Gayvert,  Qinghui Ge,  G. Gidofalvi,  M. Goldey,  J. Gomes,  
 C. Gonzalez-Espinoza,  S. Gulania,  A. Gunina,  M. W. D. Hanson-Heine,  
 P. H. P. Harbach,  A. W. Hauser,  M. F. Herbst,  M. Hernandez Vera,  
 M. Hodecker,  Z. C. Holden,  S. Houck,  Xunkun Huang,  Kerwin Hui,  
 B. C. Huynh,  M. Ivanov,  Hyunjun Ji,  Hanjie Jiang,  B. Kaduk,  S. Kaehler,  
 K. Khistyaev,  Jaehoon Kim,  P. Klunzinger,  Z. Koczor-Benda,  
 Joong Hoon Koh,  D. Kosenkov,  L. Koulias,  T. Kowalczyk,  C. M. Krauter,  
 K. Kue,  A. Kunitsa,  T. Kus,  A. Landau,  K. V. Lawler,  D. Lefrancois,  
 S. Lehtola,  Rain Li,  Yi-Pei Li,  Jiashu Liang,  M. Liebenthal,  
 Hung-Hsuan Lin,  You-Sheng Lin,  Fenglai Liu,  Kuan-Yu Liu,  
 M. Loipersberger,  A. Luenser,  A. Manjanath,  P. Manohar,  E. Mansoor,  
 S. F. Manzer,  Shan-Ping Mao,  A. V. Marenich,  T. Markovich,  S. Mason,  
 S. A. Maurer,  P. F. McLaughlin,  M. F. S. J. Menger,  J.-M. Mewes,  
 S. A. Mewes,  P. Morgante,  J. W. Mullinax,  K. J. Oosterbaan,  G. Paran,  
 Alexander C. Paul,  Suranjan K. Paul,  F. Pavosevic,  Zheng Pei,  S. Prager,  
 E. I. Proynov,  E. Ramos,  B. Rana,  A. E. Rask,  A. Rettig,  R. M. Richard,  
 F. Rob,  E. Rossomme,  T. Scheele,  M. Scheurer,  M. Schneider,  
 N. Sergueev,  S. M. Sharada,  W. Skomorowski,  D. W. Small,  C. J. Stein,  
 Yu-Chuan Su,  E. J. Sundstrom,  Zhen Tao,  J. Thirman,  T. Tsuchimochi,  
 N. M. Tubman,  S. P. Veccham,  O. Vydrov,  J. Wenzel,  J. Witte,  A. Yamada,  
 Kun Yao,  S. Yeganeh,  S. R. Yost,  A. Zech,  Igor Ying Zhang,  Xing Zhang,  
 Yu Zhang,  D. Zuev,  A. Aspuru-Guzik,  A. T. Bell,  N. A. Besley,  
 K. B. Bravaya,  B. R. Brooks,  D. Casanova,  Jeng-Da Chai,  S. Coriani,  
 C. J. Cramer,  A. E. DePrince, III,  R. A. DiStasio Jr.,  A. Dreuw,  
 B. D. Dunietz,  T. R. Furlani,  W. A. Goddard III,  S. Grimme,  
 S. Hammes-Schiffer,  T. Head-Gordon,  W. J. Hehre,  Chao-Ping Hsu,  
 T.-C. Jagau,  Yousung Jung,  A. Klamt,  Jing Kong,  D. S. Lambrecht,  
 WanZhen Liang,  N. J. Mayhall,  C. W. McCurdy,  J. B. Neaton,  T. Neudecker,  
 C. Ochsenfeld,  J. A. Parkhill,  R. Peverati,  V. A. Rassolov,  Yihan Shao,  
 L. V. Slipchenko,  R. P. Steele,  J. E. Subotnik,  A. J. W. Thom,  
 A. Tkatchenko,  D. G. Truhlar,  T. Van Voorhis,  T. A. Wesolowski,  
 K. B. Whaley,  H. L. Woodcock III,  P. M. Zimmerman,  S. Faraji,  
 P. M. W. Gill,  M. Head-Gordon,  J. M. Herbert,  A. I. Krylov

 Additional authors since Version 5.4.0: 
 Chandrima Chakravarty,  L. Cunha,  R. Kang,  Yongbin Kim,  S. Kotaru,  
 Shaozhi Li,  Xiangyuan Li,  F. Matz,  A. Molle,  V. Parravicini,  
 Haisheng Ren,  Hengyuan Shen,  Yingli Su,  Hung-Yi Tsai,  C. Utku,  
 Fang Wang,  Jeff Yang,  F. Zeller

 Contributors to earlier versions of Q-Chem not listed above: 
 R. D. Adamson,  B. Austin,  R. Baer,  J. Baker,  G. J. O. Beran,  
 K. Brandhorst,  S. T. Brown,  E. F. C. Byrd,  Arup K. Chakraborty,  
 G. K. L. Chan,  Chun-Min Chang,  Yunqing Chen,  C.-L. Cheng,  
 Siu Hung Chien,  D. M. Chipman,  D. L. Crittenden,  H. Dachsel,  
 R. J. Doerksen,  A. D. Dutoi,  R. G. Edgar,  J. Fosso-Tande,  
 L. Fusti-Molnar,  D. Ghosh,  A. Ghysels,  A. Golubeva-Zadorozhnaya,  
 J. Gonthier,  M. S. Gordon,  S. R. Gwaltney,  G. Hawkins,  J. E. Herr,  
 A. Heyden,  S. Hirata,  E. G. Hohenstein,  G. Kedziora,  F. J. Keil,  
 C. Kelley,  Jihan Kim,  R. A. King,  R. Z. Khaliullin,  P. P. Korambath,  
 W. Kurlancheek,  A. Laurent,  A. M. Lee,  M. S. Lee,  S. V. Levchenko,  
 Ching Yeh Lin,  D. Liotard,  E. Livshits,  R. C. Lochan,  I. Lotan,  
 L. A. Martinez-Martinez,  P. E. Maslen,  N. Nair,  D. P. O'Neill,  
 D. Neuhauser,  E. Neuscamman,  C. M. Oana,  R. Olivares-Amaya,  R. Olson,  
 T. M. Perrine,  B. Peters,  P. A. Pieniazek,  A. Prociuk,  Y. M. Rhee,  
 J. Ritchie,  M. A. Rohrdanz,  E. Rosta,  N. J. Russ,  H. F. Schaefer III,  
 M. W. Schmidt,  N. E. Schultz,  S. Sharma,  N. Shenvi,  C. D. Sherrill,  
 A. C. Simmonett,  A. Sodt,  T. Stein,  D. Stuck,  K. S. Thanthiriwatte,  
 V. Vanovschi,  L. Vogt,  Tao Wang,  A. Warshel,  M. A. Watson,  
 C. F. Williams,  Q. Wu,  X. Xu,  Jun Yang,  W. Zhang,  Yan Zhao

   Please cite Q-Chem as follows:
  "Software for the frontiers of quantum chemistry:
   An overview of developments in the Q-Chem 5 package"
   J. Chem. Phys. 155, 084801 (2021)
   https://doi.org/10.1063/5.0055522 (open access)

 Q-Chem 5.4.2 for Intel X86 EM64T Linux

 Parts of Q-Chem use Armadillo 9.900.5 (Nocturnal Misbehaviour).
 http://arma.sourceforge.net/

 Q-Chem begins on Fri Aug 12 12:44:29 2022  

 Host: 
0

     Scratch files written to /home/a/aspuru/seifridm/acdc_laser/descriptor_computation/qchem246749//
 Dec1321 |scratch|qcdevops|jenkins|workspace|build_RNUM 6959   
 Processing $rem in /gpfs/fs1/scinet/niagara/software/commercial/qc54/config/preferences:
 Processing $rem in /home/a/aspuru/seifridm/.qchemrc:

 Checking the input file for inconsistencies... 	...done.

--------------------------------------------------------------
User input:
--------------------------------------------------------------
$molecule
0 1
C           -3.75428764280000       -1.18256437520000        0.98828726710000
C           -2.42934147250000       -1.19735446510000        1.05205276200000
C           -1.53537130200000       -0.20826297670000        0.45713578010000
C           -1.97068686170000        1.07202539330000        0.12590755380000
C           -1.09742557240000        1.97839864330000       -0.44522206070000
Cl          -1.66362904320000        3.55228432200000       -0.88338166770000
C            0.22858651730000        1.65062417990000       -0.65805542250000
C            0.69866858150000        0.39093481340000       -0.29529687550000
C            2.12727219840000        0.11672848360000       -0.47113717330000
C            2.90435142930000       -0.49319024470000        0.40899264050000
F            2.56525014760000       -0.96571263210000        1.59435897770000
F            4.20638571180000       -0.69584128370000        0.21156596980000
C           -0.19181629510000       -0.55620363580000        0.22738937620000
O            0.22263491490000       -1.82874195560000        0.53307565840000
C            0.53288316770000       -2.66468656260000       -0.57182824850000
C           -0.70303536300000       -3.04446363690000       -1.38031060930000
H           -4.34397897510000       -1.95239438620000        1.45520804410000
H           -4.30404024930000       -0.41854055370000        0.46497900460000
H           -1.92045284690000       -2.00412726220000        1.56120833020000
H           -2.99182082110000        1.35934228190000        0.31593823500000
H            0.90774698260000        2.37638033420000       -1.07685936360000
H            2.60559491030000        0.49557185900000       -1.36214068430000
H            0.98546518110000       -3.55157889670000       -0.12253010960000
H            1.26985584970000       -2.18287425780000       -1.22815979230000
H           -1.44046607820000       -3.52302131070000       -0.74125699830000
H           -0.42191991880000       -3.73145075260000       -2.17357555000000
H           -1.15271852130000       -2.15831345220000       -1.82427444780000
$end

$rem
BASIS = 6-31G*
GUI = 2
METHOD = B3LYP
PRINT_ORBITALS false
MOLDEN_FORMAT false
$end
--------------------------------------------------------------
 ----------------------------------------------------------------
             Standard Nuclear Orientation (Angstroms)
    I     Atom           X                Y                Z
 ----------------------------------------------------------------
    1      C       2.3190027078    -3.1345045434    -0.8338048317
    2      C       1.2171493579    -2.3981215334    -0.8923402681
    3      C       1.0936352772    -1.0109961953    -0.4541183817
    4      C       2.2023890095    -0.1792013348    -0.3232269917
    5      C       2.0471237202     1.1260087549     0.1040973535
    6      Cl      3.4383860026     2.1346795116     0.2955625135
    7      C       0.7924100712     1.6434506856     0.3667562734
    8      C      -0.3360671975     0.8442914609     0.2016145215
    9      C      -1.6480850788     1.4591619938     0.4196982733
   10      C      -2.7080582405     1.2981268908    -0.3555475376
   11      F      -2.8011491077     0.5734161358    -1.4553151728
   12      F      -3.8738905367     1.9015071572    -0.1272816442
   13      C      -0.1853554155    -0.4977993167    -0.1716330887
   14      O      -1.2703442629    -1.3320329912    -0.2785024532
   15      C      -1.8985634186    -1.6957130679     0.9417219123
   16      C      -1.0263128981    -2.6087216681     1.7966858261
   17      H       2.3276742148    -4.1540482530    -1.1785432174
   18      H       3.2476073759    -2.7630863299    -0.4343630376
   19      H       0.2992437993    -2.8257967545    -1.2713292689
   20      H       3.1859850715    -0.5526005224    -0.5566558906
   21      H       0.6811606379     2.6723043926     0.6708307500
   22      H      -1.7482178990     2.1506512273     1.2431168999
   23      H      -2.8101140506    -2.2130955481     0.6340400584
   24      H      -2.1737946413    -0.8022441525     1.5179197930
   25      H      -0.7473390504    -3.4976584346     1.2370644880
   26      H      -1.5742303162    -2.9069645912     2.6861149228
   27      H      -0.1180336516    -2.0909511962     2.0992143891
 ----------------------------------------------------------------
 Molecular Point Group                 C1    NOp =  1
 Largest Abelian Subgroup              C1    NOp =  1
 Nuclear Repulsion Energy =        1205.27599220 hartrees
 There are       63 alpha and       63 beta electrons
 Requested basis set is 6-31G(d)
 There are 87 shells and 266 basis functions

 Total QAlloc Memory Limit   8000 MB
 Mega-Array Size       188 MB
 MEM_STATIC part       192 MB
 A cutoff of  1.0D-08 yielded   2495 shell pairs
 There are     24659 function pairs
 Smallest overlap matrix eigenvalue = 3.07E-04

 Scale SEOQF with 1.000000e-01/1.000000e-01/1.000000e-01

 Standard Electronic Orientation quadrupole field applied
 Nucleus-field energy     =     0.0000000444 hartrees
 Guess from superposition of atomic densities
 Warning:  Energy on first SCF cycle will be non-variational
 SAD guess density has 126.000000 electrons

 -----------------------------------------------------------------------
  General SCF calculation program by
  Eric Jon Sundstrom, Paul Horn, Yuezhi Mao, Dmitri Zuev, Alec White,
  David Stuck, Shaama M.S., Shane Yost, Joonho Lee, David Small,
  Daniel Levine, Susi Lehtola, Hugh Burton, Evgeny Epifanovsky,
  Bang C. Huynh
 -----------------------------------------------------------------------
 Exchange:     0.2000 Hartree-Fock + 0.0800 Slater + 0.7200 B88
 Correlation:  0.1900 VWN1RPA + 0.8100 LYP
 Using SG-1 standard quadrature grid
 A restricted SCF calculation will be
 performed using DIIS
 SCF converges when DIIS error is below 1.0e-05
 ---------------------------------------
  Cycle       Energy         DIIS error
 ---------------------------------------
    1   -1202.4201338641      4.79e-02  
    2   -1198.7041166206      5.20e-03  
    3   -1198.5557614759      6.67e-03  
    4   -1198.9263144476      1.20e-03  
    5   -1198.9382666241      4.03e-04  
    6   -1198.9394220624      1.82e-04  
    7   -1198.9397049677      4.92e-05  
    8   -1198.9397256791      1.47e-05  
    9   -1198.9397283206      4.98e-06  Convergence criterion met
 ---------------------------------------
 SCF time:   CPU 70.39s  wall 73.00s 
 SCF   energy in the final basis set =    -1198.9397283206
 Total energy in the final basis set =    -1198.9397283206
 
 --------------------------------------------------------------
 
                    Orbital Energies (a.u.)
 --------------------------------------------------------------
 
 Alpha MOs
 -- Occupied --
******** -24.7411 -24.7372 -19.1703 -10.3613 -10.2522 -10.2504 -10.2415
-10.2168 -10.2074 -10.2073 -10.2047 -10.2019 -10.1931 -10.1854 -10.1794
 -9.4663  -7.2302  -7.2207  -7.2202  -1.2867  -1.2257  -1.0639  -0.9010
 -0.8524  -0.8233  -0.7815  -0.7692  -0.7389  -0.7217  -0.6589  -0.6413
 -0.6319  -0.5948  -0.5781  -0.5617  -0.5331  -0.5266  -0.5182  -0.4985
 -0.4843  -0.4775  -0.4605  -0.4493  -0.4435  -0.4393  -0.4303  -0.4264
 -0.4159  -0.4077  -0.4015  -0.3883  -0.3864  -0.3748  -0.3612  -0.3479
 -0.3313  -0.3157  -0.3115  -0.2841  -0.2691  -0.2327  -0.2271
 -- Virtual --
 -0.0433  -0.0218   0.0259   0.0395   0.0595   0.0991   0.1083   0.1157
  0.1270   0.1305   0.1447   0.1487   0.1542   0.1677   0.1730   0.1765
  0.1870   0.1922   0.1966   0.2175   0.2337   0.2425   0.2783   0.2941
  0.3065   0.3214   0.3445   0.3820   0.3921   0.3997   0.4122   0.4254
  0.4418   0.4523   0.4641   0.4815   0.4864   0.4969   0.5202   0.5223
  0.5353   0.5424   0.5463   0.5499   0.5622   0.5712   0.5818   0.5871
  0.5960   0.6037   0.6145   0.6234   0.6316   0.6502   0.6732   0.6746
  0.6897   0.7022   0.7265   0.7534   0.7695   0.7741   0.7901   0.8122
  0.8264   0.8290   0.8411   0.8551   0.8573   0.8679   0.8729   0.8794
  0.8938   0.9034   0.9061   0.9167   0.9293   0.9435   0.9536   0.9635
  0.9735   0.9854   0.9972   1.0099   1.0185   1.0322   1.0605   1.1075
  1.1092   1.1213   1.1273   1.1604   1.1656   1.1786   1.1999   1.2150
  1.2251   1.2410   1.2517   1.2828   1.3104   1.3293   1.3489   1.3646
  1.3760   1.3899   1.4027   1.4210   1.4386   1.4571   1.4804   1.4925
  1.4967   1.5302   1.5445   1.5561   1.5626   1.6021   1.6488   1.6735
  1.6807   1.7024   1.7367   1.7595   1.7757   1.7818   1.8102   1.8247
  1.8381   1.8429   1.8580   1.8796   1.9081   1.9173   1.9349   1.9511
  1.9630   1.9754   1.9909   2.0006   2.0041   2.0244   2.0388   2.0599
  2.0872   2.0906   2.1210   2.1477   2.1542   2.1694   2.1951   2.2193
  2.2230   2.2475   2.2601   2.2856   2.3032   2.3059   2.3313   2.3780
  2.4006   2.4174   2.4434   2.4667   2.5135   2.5253   2.5667   2.5838
  2.5888   2.6183   2.6392   2.6658   2.6832   2.7092   2.7631   2.7817
  2.8331   2.8638   2.8813   2.9160   2.9842   3.0256   3.0768   3.1276
  3.1773   3.2959   3.4407   4.0655   4.1035   4.1081   4.1325   4.1527
  4.1786   4.2179   4.2500   4.2840   4.3978   4.4397   4.4716   4.5084
  4.7569   4.8848   5.2942
 --------------------------------------------------------------
 
          Ground-State Mulliken Net Atomic Charges

     Atom                 Charge (a.u.)
  ----------------------------------------
      1 C                    -0.348812
      2 C                    -0.105814
      3 C                     0.137893
      4 C                    -0.207703
      5 C                    -0.061406
      6 Cl                   -0.017135
      7 C                    -0.199838
      8 C                     0.168602
      9 C                    -0.359526
     10 C                     0.588378
     11 F                    -0.222193
     12 F                    -0.247362
     13 C                     0.221794
     14 O                    -0.531252
     15 C                    -0.042223
     16 C                    -0.462359
     17 H                     0.148170
     18 H                     0.144901
     19 H                     0.154456
     20 H                     0.152080
     21 H                     0.152816
     22 H                     0.170894
     23 H                     0.152331
     24 H                     0.140465
     25 H                     0.161636
     26 H                     0.148558
     27 H                     0.162649
  ----------------------------------------
  Sum of atomic charges =     0.000000

 -----------------------------------------------------------------
                    Cartesian Multipole Moments
 -----------------------------------------------------------------
    Charge (ESU x 10^10)
                 0.0000
    Dipole Moment (Debye)
         X      -0.7657      Y      -1.1539      Z       1.5292
       Tot       2.0630
    Quadrupole Moments (Debye-Ang)
        XX    -100.8665     XY      -2.8003     YY     -93.0037
        XZ      -4.2754     YZ       0.7483     ZZ     -98.3373
    Octopole Moments (Debye-Ang^2)
       XXX     -37.5510    XXY     -20.1202    XYY     -19.2434
       YYY       8.2224    XXZ       0.5398    XYZ       3.7283
       YYZ      -2.4855    XZZ     -21.6180    YZZ       7.3723
       ZZZ      -6.7088
    Hexadecapole Moments (Debye-Ang^3)
      XXXX   -2928.6417   XXXY     -29.8350   XXYY    -811.6574
      XYYY     -46.7801   YYYY   -1933.4109   XXXZ      18.8425
      XXYZ      -5.2139   XYYZ      -3.4061   YYYZ      31.6277
      XXZZ    -567.2334   XYZZ      -6.6660   YYZZ    -404.8580
      XZZZ      40.4477   YZZZ     -12.7909   ZZZZ    -458.2039
 -----------------------------------------------------------------
 Total job time:  73.40s(wall), 70.93s(cpu) 
 Fri Aug 12 12:45:43 2022

        *************************************************************
        *                                                           *
        *  Thank you very much for using Q-Chem.  Have a nice day.  *
        *                                                           *
        *************************************************************


