27
 energy: -49.338586041402 gnorm: 0.000055339678 xtb: 6.5.0 (unknown)
C           -3.75428764280000       -1.18256437520000        0.98828726710000
C           -2.42934147250000       -1.19735446510000        1.05205276200000
C           -1.53537130200000       -0.20826297670000        0.45713578010000
C           -1.97068686170000        1.07202539330000        0.12590755380000
C           -1.09742557240000        1.97839864330000       -0.44522206070000
Cl          -1.66362904320000        3.55228432200000       -0.88338166770000
C            0.22858651730000        1.65062417990000       -0.65805542250000
C            0.69866858150000        0.39093481340000       -0.29529687550000
C            2.12727219840000        0.11672848360000       -0.47113717330000
C            2.90435142930000       -0.49319024470000        0.40899264050000
F            2.56525014760000       -0.96571263210000        1.59435897770000
F            4.20638571180000       -0.69584128370000        0.21156596980000
C           -0.19181629510000       -0.55620363580000        0.22738937620000
O            0.22263491490000       -1.82874195560000        0.53307565840000
C            0.53288316770000       -2.66468656260000       -0.57182824850000
C           -0.70303536300000       -3.04446363690000       -1.38031060930000
H           -4.34397897510000       -1.95239438620000        1.45520804410000
H           -4.30404024930000       -0.41854055370000        0.46497900460000
H           -1.92045284690000       -2.00412726220000        1.56120833020000
H           -2.99182082110000        1.35934228190000        0.31593823500000
H            0.90774698260000        2.37638033420000       -1.07685936360000
H            2.60559491030000        0.49557185900000       -1.36214068430000
H            0.98546518110000       -3.55157889670000       -0.12253010960000
H            1.26985584970000       -2.18287425780000       -1.22815979230000
H           -1.44046607820000       -3.52302131070000       -0.74125699830000
H           -0.42191991880000       -3.73145075260000       -2.17357555000000
H           -1.15271852130000       -2.15831345220000       -1.82427444780000
