
Running Job 1 of 1 tidas/B032/conf-0/spe_input.inp
qchem tidas/B032/conf-0/spe_input.inp_148103.0 /home/a/aspuru/seifridm/acdc_laser/descriptor_computation/qchem148103/ 0
/gpfs/fs1/scinet/niagara/software/commercial/qc54/exe/qcprog.exe_s tidas/B032/conf-0/spe_input.inp_148103.0 /home/a/aspuru/seifridm/acdc_laser/descriptor_computation/qchem148103/
                  Welcome to Q-Chem
     A Quantum Leap Into The Future Of Chemistry


 Q-Chem 5.4, Q-Chem, Inc., Pleasanton, CA (2021)

 License issued to: SRG Alan Aspuru-Guzik, University of Toronto

 E. Epifanovsky,  A. T. B. Gilbert,  Xintian Feng,  Joonho Lee,  Yuezhi Mao,  
 N. Mardirossian,  P. Pokhilko,  A. White,  M. Wormit,  M. P. Coons,  
 A. L. Dempwolff,  Zhengting Gan,  D. Hait,  P. R. Horn,  L. D. Jacobson,  
 I. Kaliman,  J. Kussmann,  A. W. Lange,  Ka Un Lao,  D. S. Levine,  Jie Liu,  
 S. C. McKenzie,  A. F. Morrison,  K. Nanda,  F. Plasser,  D. R. Rehn,  
 M. L. Vidal,  Zhi-Qiang You,  Ying Zhu,  B. Alam,  B. Albrecht,  
 A. Aldossary,  E. Alguire,  J. H. Andersen,  D. Barton,  K. Begam,  A. Behn,  
 Y. A. Bernard,  E. J. Berquist,  H. Burton,  A. Carreras,  K. Carter-Fenk,  
 Romit Chakraborty,  A. D. Chien,  K. D. Closser,  V. Cofer-Shabica,  
 S. Dasgupta,  Jia Deng,  M. de Wergifosse,  M. Diedenhofen,  Hainam Do,  
 S. Ehlert,  Po-Tung Fang,  S. Fatehi,  Qingguo Feng,  T. Friedhoff,  
 J. Gayvert,  Qinghui Ge,  G. Gidofalvi,  M. Goldey,  J. Gomes,  
 C. Gonzalez-Espinoza,  S. Gulania,  A. Gunina,  M. W. D. Hanson-Heine,  
 P. H. P. Harbach,  A. W. Hauser,  M. F. Herbst,  M. Hernandez Vera,  
 M. Hodecker,  Z. C. Holden,  S. Houck,  Xunkun Huang,  Kerwin Hui,  
 B. C. Huynh,  M. Ivanov,  Hyunjun Ji,  Hanjie Jiang,  B. Kaduk,  S. Kaehler,  
 K. Khistyaev,  Jaehoon Kim,  P. Klunzinger,  Z. Koczor-Benda,  
 Joong Hoon Koh,  D. Kosenkov,  L. Koulias,  T. Kowalczyk,  C. M. Krauter,  
 K. Kue,  A. Kunitsa,  T. Kus,  A. Landau,  K. V. Lawler,  D. Lefrancois,  
 S. Lehtola,  Rain Li,  Yi-Pei Li,  Jiashu Liang,  M. Liebenthal,  
 Hung-Hsuan Lin,  You-Sheng Lin,  Fenglai Liu,  Kuan-Yu Liu,  
 M. Loipersberger,  A. Luenser,  A. Manjanath,  P. Manohar,  E. Mansoor,  
 S. F. Manzer,  Shan-Ping Mao,  A. V. Marenich,  T. Markovich,  S. Mason,  
 S. A. Maurer,  P. F. McLaughlin,  M. F. S. J. Menger,  J.-M. Mewes,  
 S. A. Mewes,  P. Morgante,  J. W. Mullinax,  K. J. Oosterbaan,  G. Paran,  
 Alexander C. Paul,  Suranjan K. Paul,  F. Pavosevic,  Zheng Pei,  S. Prager,  
 E. I. Proynov,  E. Ramos,  B. Rana,  A. E. Rask,  A. Rettig,  R. M. Richard,  
 F. Rob,  E. Rossomme,  T. Scheele,  M. Scheurer,  M. Schneider,  
 N. Sergueev,  S. M. Sharada,  W. Skomorowski,  D. W. Small,  C. J. Stein,  
 Yu-Chuan Su,  E. J. Sundstrom,  Zhen Tao,  J. Thirman,  T. Tsuchimochi,  
 N. M. Tubman,  S. P. Veccham,  O. Vydrov,  J. Wenzel,  J. Witte,  A. Yamada,  
 Kun Yao,  S. Yeganeh,  S. R. Yost,  A. Zech,  Igor Ying Zhang,  Xing Zhang,  
 Yu Zhang,  D. Zuev,  A. Aspuru-Guzik,  A. T. Bell,  N. A. Besley,  
 K. B. Bravaya,  B. R. Brooks,  D. Casanova,  Jeng-Da Chai,  S. Coriani,  
 C. J. Cramer,  A. E. DePrince, III,  R. A. DiStasio Jr.,  A. Dreuw,  
 B. D. Dunietz,  T. R. Furlani,  W. A. Goddard III,  S. Grimme,  
 S. Hammes-Schiffer,  T. Head-Gordon,  W. J. Hehre,  Chao-Ping Hsu,  
 T.-C. Jagau,  Yousung Jung,  A. Klamt,  Jing Kong,  D. S. Lambrecht,  
 WanZhen Liang,  N. J. Mayhall,  C. W. McCurdy,  J. B. Neaton,  T. Neudecker,  
 C. Ochsenfeld,  J. A. Parkhill,  R. Peverati,  V. A. Rassolov,  Yihan Shao,  
 L. V. Slipchenko,  R. P. Steele,  J. E. Subotnik,  A. J. W. Thom,  
 A. Tkatchenko,  D. G. Truhlar,  T. Van Voorhis,  T. A. Wesolowski,  
 K. B. Whaley,  H. L. Woodcock III,  P. M. Zimmerman,  S. Faraji,  
 P. M. W. Gill,  M. Head-Gordon,  J. M. Herbert,  A. I. Krylov

 Additional authors since Version 5.4.0: 
 Chandrima Chakravarty,  L. Cunha,  R. Kang,  Yongbin Kim,  S. Kotaru,  
 Shaozhi Li,  Xiangyuan Li,  F. Matz,  A. Molle,  V. Parravicini,  
 Haisheng Ren,  Hengyuan Shen,  Yingli Su,  Hung-Yi Tsai,  C. Utku,  
 Fang Wang,  Jeff Yang,  F. Zeller

 Contributors to earlier versions of Q-Chem not listed above: 
 R. D. Adamson,  B. Austin,  R. Baer,  J. Baker,  G. J. O. Beran,  
 K. Brandhorst,  S. T. Brown,  E. F. C. Byrd,  Arup K. Chakraborty,  
 G. K. L. Chan,  Chun-Min Chang,  Yunqing Chen,  C.-L. Cheng,  
 Siu Hung Chien,  D. M. Chipman,  D. L. Crittenden,  H. Dachsel,  
 R. J. Doerksen,  A. D. Dutoi,  R. G. Edgar,  J. Fosso-Tande,  
 L. Fusti-Molnar,  D. Ghosh,  A. Ghysels,  A. Golubeva-Zadorozhnaya,  
 J. Gonthier,  M. S. Gordon,  S. R. Gwaltney,  G. Hawkins,  J. E. Herr,  
 A. Heyden,  S. Hirata,  E. G. Hohenstein,  G. Kedziora,  F. J. Keil,  
 C. Kelley,  Jihan Kim,  R. A. King,  R. Z. Khaliullin,  P. P. Korambath,  
 W. Kurlancheek,  A. Laurent,  A. M. Lee,  M. S. Lee,  S. V. Levchenko,  
 Ching Yeh Lin,  D. Liotard,  E. Livshits,  R. C. Lochan,  I. Lotan,  
 L. A. Martinez-Martinez,  P. E. Maslen,  N. Nair,  D. P. O'Neill,  
 D. Neuhauser,  E. Neuscamman,  C. M. Oana,  R. Olivares-Amaya,  R. Olson,  
 T. M. Perrine,  B. Peters,  P. A. Pieniazek,  A. Prociuk,  Y. M. Rhee,  
 J. Ritchie,  M. A. Rohrdanz,  E. Rosta,  N. J. Russ,  H. F. Schaefer III,  
 M. W. Schmidt,  N. E. Schultz,  S. Sharma,  N. Shenvi,  C. D. Sherrill,  
 A. C. Simmonett,  A. Sodt,  T. Stein,  D. Stuck,  K. S. Thanthiriwatte,  
 V. Vanovschi,  L. Vogt,  Tao Wang,  A. Warshel,  M. A. Watson,  
 C. F. Williams,  Q. Wu,  X. Xu,  Jun Yang,  W. Zhang,  Yan Zhao

   Please cite Q-Chem as follows:
  "Software for the frontiers of quantum chemistry:
   An overview of developments in the Q-Chem 5 package"
   J. Chem. Phys. 155, 084801 (2021)
   https://doi.org/10.1063/5.0055522 (open access)

 Q-Chem 5.4.2 for Intel X86 EM64T Linux

 Parts of Q-Chem use Armadillo 9.900.5 (Nocturnal Misbehaviour).
 http://arma.sourceforge.net/

 Q-Chem begins on Fri Aug 12 13:12:47 2022  

 Host: 
0

     Scratch files written to /home/a/aspuru/seifridm/acdc_laser/descriptor_computation/qchem148103//
 Dec1321 |scratch|qcdevops|jenkins|workspace|build_RNUM 6959   
 Processing $rem in /gpfs/fs1/scinet/niagara/software/commercial/qc54/config/preferences:
 Processing $rem in /home/a/aspuru/seifridm/.qchemrc:

 Checking the input file for inconsistencies... 	...done.

--------------------------------------------------------------
User input:
--------------------------------------------------------------
$molecule
0 1
C           -4.40749176020000        0.35957725280000        0.64524375350000
C           -3.35461658860000        0.74108155450000       -0.06255614100000
C           -2.08565037760000        0.00636907310000       -0.11539459500000
C           -2.10939590030000       -1.38564157140000       -0.17286472210000
C           -0.93740573870000       -2.11020294240000       -0.26589139610000
C            0.27527750290000       -1.45158508420000       -0.31977916280000
C            0.32552382390000       -0.05994581570000       -0.25999082400000
C            1.60764086910000        0.63653999720000       -0.36349141470000
C            2.77569386980000        0.18978369350000        0.06579072290000
F            3.02112202850000       -0.94321263930000        0.71412706860000
F            3.91914710720000        0.86039330710000       -0.08087059250000
C           -0.85898491330000        0.67915536900000       -0.13827318610000
C           -0.80573085260000        2.17261941250000        0.01413203550000
H           -5.32821122840000        0.91775112730000        0.63892297890000
H           -4.38395737340000       -0.51505229770000        1.27400101200000
H           -3.40984549660000        1.63909767900000       -0.66432168590000
H           -3.06121665150000       -1.89496406240000       -0.16528792100000
H           -0.96800431350000       -3.18827763180000       -0.31287251520000
H            1.18718776860000       -2.01719204850000       -0.42616762510000
H            1.62303936340000        1.60324219790000       -0.84313870190000
H            0.04891001220000        2.46759504190000        0.61840605270000
H           -1.70361578860000        2.54238690130000        0.50068492940000
H           -0.71923997730000        2.65502542850000       -0.96079290320000
$end

$rem
BASIS = 6-31G*
GUI = 2
METHOD = B3LYP
PRINT_ORBITALS false
MOLDEN_FORMAT false
$end
--------------------------------------------------------------
 ----------------------------------------------------------------
             Standard Nuclear Orientation (Angstroms)
    I     Atom           X                Y                Z
 ----------------------------------------------------------------
    1      C      -4.2900269994     0.3142251635     0.6143084458
    2      C      -3.2335181089     0.7000459815    -0.0856941331
    3      C      -1.9600485858    -0.0276143455    -0.1263807358
    4      C      -1.9754924878    -1.4198644252    -0.1808004126
    5      C      -0.7987201768    -2.1380127301    -0.2624950980
    6      C       0.4106434293    -1.4726884582    -0.3079406752
    7      C       0.4525698009    -0.0806549417    -0.2509840236
    8      C       1.7315595686     0.6228150056    -0.3455577235
    9      C       2.8985298357     0.1836372784     0.0943575872
   10      F       3.1449750568    -0.9464727227     0.7473291232
   11      F       4.0393637695     0.8603506238    -0.0444555434
   12      C      -0.7370385877     0.6520278061    -0.1407362752
   13      C      -0.6934401888     2.1461127025     0.0086213422
   14      H      -5.2137870820     0.8671797727     0.5991138589
   15      H      -4.2667559497    -0.5588194309     1.2452743740
   16      H      -3.2888359720     1.5963595480    -0.6899845331
   17      H      -2.9244645026    -1.9345301349    -0.1798662711
   18      H      -0.8228683970    -3.2163473778    -0.3072140548
   19      H       1.3265650974    -2.0333831287    -0.4055063457
   20      H       1.7454733162     1.5884907382    -0.8273134351
   21      H       0.1545212659     2.4472846222     0.6192157770
   22      H      -1.5973680473     2.5119188867     0.4869092626
   23      H      -0.6016341597     2.6267711741    -0.9666806410
 ----------------------------------------------------------------
 Molecular Point Group                 C1    NOp =  1
 Largest Abelian Subgroup              C1    NOp =  1
 Nuclear Repulsion Energy =         741.96532290 hartrees
 There are       47 alpha and       47 beta electrons
 Requested basis set is 6-31G(d)
 There are 72 shells and 215 basis functions

 Total QAlloc Memory Limit   8000 MB
 Mega-Array Size       188 MB
 MEM_STATIC part       192 MB
 A cutoff of  1.0D-08 yielded   1815 shell pairs
 There are     16947 function pairs
 Smallest overlap matrix eigenvalue = 3.28E-04

 Scale SEOQF with 1.000000e-01/1.000000e-01/1.000000e+00

 Standard Electronic Orientation quadrupole field applied
 Nucleus-field energy     =     0.0000000164 hartrees
 Guess from superposition of atomic densities
 Warning:  Energy on first SCF cycle will be non-variational
 SAD guess density has 94.000000 electrons

 -----------------------------------------------------------------------
  General SCF calculation program by
  Eric Jon Sundstrom, Paul Horn, Yuezhi Mao, Dmitri Zuev, Alec White,
  David Stuck, Shaama M.S., Shane Yost, Joonho Lee, David Small,
  Daniel Levine, Susi Lehtola, Hugh Burton, Evgeny Epifanovsky,
  Bang C. Huynh
 -----------------------------------------------------------------------
 Exchange:     0.2000 Hartree-Fock + 0.0800 Slater + 0.7200 B88
 Correlation:  0.1900 VWN1RPA + 0.8100 LYP
 Using SG-1 standard quadrature grid
 A restricted SCF calculation will be
 performed using DIIS
 SCF converges when DIIS error is below 1.0e-05
 ---------------------------------------
  Cycle       Energy         DIIS error
 ---------------------------------------
    1    -627.6997634123      5.41e-02  
    2    -624.5923858127      6.20e-03  
    3    -624.4339813618      8.10e-03  
    4    -624.8110062483      1.53e-03  
    5    -624.8239898884      4.67e-04  
    6    -624.8248385421      2.60e-04  
    7    -624.8252503521      5.44e-05  
    8    -624.8252674097      1.69e-05  
    9    -624.8252695843      4.97e-06  Convergence criterion met
 ---------------------------------------
 SCF time:   CPU 49.00s  wall 51.00s 
 SCF   energy in the final basis set =     -624.8252695843
 Total energy in the final basis set =     -624.8252695843
 
 --------------------------------------------------------------
 
                    Orbital Energies (a.u.)
 --------------------------------------------------------------
 
 Alpha MOs
 -- Occupied --
-24.7400 -24.7323 -10.3547 -10.1997 -10.1994 -10.1955 -10.1915 -10.1903
-10.1840 -10.1832 -10.1826 -10.1821 -10.1811  -1.2820  -1.2215  -0.8715
 -0.8135  -0.7863  -0.7658  -0.7221  -0.6878  -0.6437  -0.6206  -0.5889
 -0.5674  -0.5637  -0.5172  -0.5152  -0.4954  -0.4784  -0.4595  -0.4386
 -0.4360  -0.4356  -0.4246  -0.4199  -0.4132  -0.4043  -0.3931  -0.3736
 -0.3612  -0.3409  -0.3329  -0.2983  -0.2764  -0.2309  -0.2204
 -- Virtual --
 -0.0246  -0.0167   0.0359   0.0691   0.0972   0.1084   0.1271   0.1390
  0.1412   0.1536   0.1612   0.1693   0.1850   0.1908   0.1979   0.2072
  0.2194   0.2433   0.2992   0.3088   0.3157   0.3436   0.3549   0.3746
  0.4103   0.4273   0.4808   0.4981   0.5053   0.5108   0.5143   0.5329
  0.5523   0.5605   0.5706   0.5770   0.5906   0.6033   0.6056   0.6160
  0.6198   0.6255   0.6312   0.6518   0.6792   0.6823   0.6889   0.7106
  0.7301   0.7531   0.7606   0.7946   0.8021   0.8335   0.8433   0.8513
  0.8621   0.8740   0.8860   0.9050   0.9276   0.9461   0.9569   0.9635
  0.9812   0.9844   0.9928   1.0164   1.0579   1.0774   1.0807   1.1034
  1.1239   1.1586   1.1857   1.1926   1.1938   1.2114   1.2337   1.2519
  1.2635   1.3006   1.3228   1.3570   1.3922   1.4124   1.4195   1.4485
  1.4581   1.4677   1.4761   1.5014   1.5196   1.5519   1.5819   1.6299
  1.6821   1.6960   1.7290   1.7662   1.7730   1.7915   1.8092   1.8237
  1.8261   1.8448   1.8582   1.8910   1.9160   1.9364   1.9580   1.9737
  1.9845   2.0119   2.0154   2.0191   2.0400   2.0542   2.0823   2.0991
  2.1278   2.1752   2.1880   2.1946   2.2227   2.2362   2.2697   2.2720
  2.2944   2.3216   2.3304   2.3924   2.4013   2.4257   2.4523   2.4915
  2.5259   2.5406   2.5789   2.6296   2.6721   2.6741   2.6937   2.7322
  2.7511   2.8130   2.8224   2.8986   2.9329   3.0233   3.0263   3.1224
  3.1577   3.2960   3.4741   4.0938   4.1029   4.1216   4.1247   4.1424
  4.2397   4.2718   4.3202   4.4200   4.4766   4.7439   4.7976   5.2337
 --------------------------------------------------------------
 
          Ground-State Mulliken Net Atomic Charges

     Atom                 Charge (a.u.)
  ----------------------------------------
      1 C                    -0.335419
      2 C                    -0.138207
      3 C                     0.094031
      4 C                    -0.175499
      5 C                    -0.135343
      6 C                    -0.179374
      7 C                     0.121233
      8 C                    -0.320053
      9 C                     0.554172
     10 F                    -0.235925
     11 F                    -0.249585
     12 C                     0.063576
     13 C                    -0.541286
     14 H                     0.142634
     15 H                     0.146299
     16 H                     0.138433
     17 H                     0.128316
     18 H                     0.128311
     19 H                     0.132447
     20 H                     0.165708
     21 H                     0.167200
     22 H                     0.167270
     23 H                     0.161061
  ----------------------------------------
  Sum of atomic charges =     0.000000

 -----------------------------------------------------------------
                    Cartesian Multipole Moments
 -----------------------------------------------------------------
    Charge (ESU x 10^10)
                 0.0000
    Dipole Moment (Debye)
         X      -1.0690      Y       0.5776      Z      -0.3765
       Tot       1.2721
    Quadrupole Moments (Debye-Ang)
        XX     -74.1605     XY      -0.4077     YY     -68.5842
        XZ      -1.5420     YZ      -0.9576     ZZ     -75.8106
    Octopole Moments (Debye-Ang^2)
       XXX      18.0550    XXY      -0.5280    XYY      13.6066
       YYY      -6.6694    XXZ       4.9375    XYZ       4.3544
       YYZ      -1.9152    XZZ      22.3584    YZZ       3.2638
       ZZZ       7.4568
    Hexadecapole Moments (Debye-Ang^3)
      XXXX   -2669.3389   XXXY     -29.5697   XXYY    -555.9210
      XYYY       9.1925   YYYY    -725.6143   XXXZ     -19.4908
      XXYZ      -9.4822   XYYZ       6.0185   YYYZ      -7.7904
      XXZZ    -474.7576   XYZZ       3.4093   YYZZ    -151.4432
      XZZZ      19.8465   YZZZ     -12.2065   ZZZZ    -136.8402
 -----------------------------------------------------------------
 Total job time:  51.23s(wall), 49.45s(cpu) 
 Fri Aug 12 13:13:38 2022

        *************************************************************
        *                                                           *
        *  Thank you very much for using Q-Chem.  Have a nice day.  *
        *                                                           *
        *************************************************************


