
Running Job 1 of 1 fragments/B014/conf-2/spe_input.inp
qchem fragments/B014/conf-2/spe_input.inp_366343.0 /gpfs/fs0/scratch/a/aspuru/rhickman/descriptor_computation/qchem366343/ 0
/scinet/niagara/software/commercial/qc52/exe/qcprog.exe_s fragments/B014/conf-2/spe_input.inp_366343.0 /gpfs/fs0/scratch/a/aspuru/rhickman/descriptor_computation/qchem366343/
                  Welcome to Q-Chem
     A Quantum Leap Into The Future Of Chemistry


 Q-Chem 5.2, Q-Chem, Inc., Pleasanton, CA (2019)

 License issued to: SRG Alan Aspuru-Guzik, University of Toronto

 Yihan Shao,  Zhengting Gan,  E. Epifanovsky,  A. T. B. Gilbert,  M. Wormit,  
 J. Kussmann,  A. W. Lange,  A. Behn,  Jia Deng,  Xintian Feng,  D. Ghosh,  
 M. Goldey,  P. R. Horn,  L. D. Jacobson,  I. Kaliman,  T. Kus,  A. Landau,  
 Jie Liu,  E. I. Proynov,  R. M. Richard,  R. P. Steele,  E. J. Sundstrom,  
 H. L. Woodcock III,  P. M. Zimmerman,  D. Zuev,  B. Albrecht,  E. Alguire,  
 S. A. Baeppler,  D. Barton,  Z. Benda,  Y. A. Bernard,  E. J. Berquist,  
 K. B. Bravaya,  H. Burton,  D. Casanova,  Chun-Min Chang,  Yunqing Chen,  
 A. Chien,  K. D. Closser,  M. P. Coons,  S. Coriani,  S. Dasgupta,  
 A. L. Dempwolff,  M. Diedenhofen,  Hainam Do,  R. G. Edgar,  Po-Tung Fang,  
 S. Faraji,  S. Fatehi,  Qingguo Feng,  K. D. Fenk,  J. Fosso-Tande,  
 J. Gayvert,  Qinghui Ge,  A. Ghysels,  G. Gidofalvi,  J. Gomes,  
 J. Gonthier,  A. Gunina,  D. Hait,  M. W. D. Hanson-Heine,  
 P. H. P. Harbach,  A. W. Hauser,  M. F. Herbst,  J. E. Herr,  
 E. G. Hohenstein,  Z. C. Holden,  Kerwin Hui,  B. C. Huynh,  T.-C. Jagau,  
 Hyunjun Ji,  B. Kaduk,  K. Khistyaev,  Jaehoon Kim,  P. Klunzinger,  K. Koh,  
 D. Kosenkov,  L. Koulias,  T. Kowalczyk,  C. M. Krauter,  A. Kunitsa,  
 Ka Un Lao,  A. Laurent,  K. V. Lawler,  Joonho Lee,  D. Lefrancois,  
 S. Lehtola,  D. S. Levine,  Yi-Pei Li,  You-Sheng Lin,  Fenglai Liu,  
 E. Livshits,  A. Luenser,  P. Manohar,  E. Mansoor,  S. F. Manzer,  
 Shan-Ping Mao,  Yuezhi Mao,  N. Mardirossian,  A. V. Marenich,  
 T. Markovich,  L. A. Martinez-Martinez,  S. A. Maurer,  N. J. Mayhall,  
 S. C. McKenzie,  J.-M. Mewes,  P. Morgante,  A. F. Morrison,  
 J. W. Mullinax,  K. Nanda,  T. S. Nguyen-Beck,  R. Olivares-Amaya,  
 J. A. Parkhill,  Zheng Pei,  T. M. Perrine,  F. Plasser,  P. Pokhilko,  
 S. Prager,  A. Prociuk,  E. Ramos,  D. R. Rehn,  F. Rob,  M. Scheurer,  
 M. Schneider,  N. Sergueev,  S. M. Sharada,  S. Sharma,  D. W. Small,  
 T. Stauch,  T. Stein,  Yu-Chuan Su,  A. J. W. Thom,  A. Tkatchenko,  
 T. Tsuchimochi,  N. M. Tubman,  L. Vogt,  M. L. Vidal,  O. Vydrov,  
 M. A. Watson,  J. Wenzel,  M. de Wergifosse,  T. A. Wesolowski,  A. White,  
 J. Witte,  A. Yamada,  Jun Yang,  K. Yao,  S. Yeganeh,  S. R. Yost,  
 Zhi-Qiang You,  A. Zech,  Igor Ying Zhang,  Xing Zhang,  Yan Zhao,  
 Ying Zhu,  B. R. Brooks,  G. K. L. Chan,  C. J. Cramer,  M. S. Gordon,  
 W. J. Hehre,  A. Klamt,  M. W. Schmidt,  C. D. Sherrill,  D. G. Truhlar,  
 A. Aspuru-Guzik,  R. Baer,  A. T. Bell,  N. A. Besley,  Jeng-Da Chai,  
 A. E. DePrince, III,  R. A. DiStasio Jr.,  A. Dreuw,  B. D. Dunietz,  
 T. R. Furlani,  Chao-Ping Hsu,  Yousung Jung,  Jing Kong,  D. S. Lambrecht,  
 WanZhen Liang,  C. Ochsenfeld,  V. A. Rassolov,  L. V. Slipchenko,  
 J. E. Subotnik,  T. Van Voorhis,  J. M. Herbert,  A. I. Krylov,  
 P. M. W. Gill,  M. Head-Gordon

 Contributors to earlier versions of Q-Chem not listed above: 
 R. D. Adamson,  B. Austin,  J. Baker,  G. J. O. Beran,  K. Brandhorst,  
 S. T. Brown,  E. F. C. Byrd,  A. K. Chakraborty,  C.-L. Cheng,  
 Siu Hung Chien,  D. M. Chipman,  D. L. Crittenden,  H. Dachsel,  
 R. J. Doerksen,  A. D. Dutoi,  L. Fusti-Molnar,  W. A. Goddard III,  
 A. Golubeva-Zadorozhnaya,  S. R. Gwaltney,  G. Hawkins,  A. Heyden,  
 S. Hirata,  G. Kedziora,  F. J. Keil,  C. Kelley,  Jihan Kim,  R. A. King,  
 R. Z. Khaliullin,  P. P. Korambath,  W. Kurlancheek,  A. M. Lee,  M. S. Lee,  
 S. V. Levchenko,  Ching Yeh Lin,  D. Liotard,  R. C. Lochan,  I. Lotan,  
 P. E. Maslen,  N. Nair,  D. P. O'Neill,  D. Neuhauser,  E. Neuscamman,  
 C. M. Oana,  R. Olson,  B. Peters,  R. Peverati,  P. A. Pieniazek,  
 Y. M. Rhee,  J. Ritchie,  M. A. Rohrdanz,  E. Rosta,  N. J. Russ,  
 H. F. Schaefer III,  N. E. Schultz,  N. Shenvi,  A. C. Simmonett,  A. Sodt,  
 D. Stuck,  K. S. Thanthiriwatte,  V. Vanovschi,  Tao Wang,  A. Warshel,  
 C. F. Williams,  Q. Wu,  X. Xu,  W. Zhang

 Please cite Q-Chem as follows:
 Y. Shao et al., Mol. Phys. 113, 184-215 (2015)
 DOI: 10.1080/00268976.2014.952696

 Q-Chem 5.2.1 for Intel X86 EM64T Linux

 Parts of Q-Chem use Armadillo 8.300.2 (Tropical Shenanigans).
 http://arma.sourceforge.net/

 Q-Chem begins on Tue Feb  8 16:58:10 2022  

Host: 
0

     Scratch files written to /gpfs/fs0/scratch/a/aspuru/rhickman/descriptor_computation/qchem366343//
 Jul1719 |scratch|qcdevops|jenkins|workspace|build_RNUM -1
Processing $rem in /scinet/niagara/software/commercial/qc52/config/preferences:
	 MEM_TOTAL  4000 
NAlpha2: 102
NElect   102
Mult     1

Checking the input file for inconsistencies... 	...done.

--------------------------------------------------------------
User input:
--------------------------------------------------------------
$molecule
0 1
C         2.66744610410000   -2.82599672990000    0.02498594020000
C         2.82587986020000   -1.50868505150000   -0.00674169860000
C         1.76939164020000   -0.50160021580000   -0.00488969180000
C         0.41441937070000   -0.83376181770000   -0.00278990810000
C        -0.55831556950000    0.15799178270000    0.00003488910000
C        -1.98562374770000   -0.12859797310000    0.00225808430000
C        -2.59438062930000   -1.30489189120000    0.00012241880000
F        -2.04797958780000   -2.51484290060000   -0.00447354530000
F        -3.92127693250000   -1.43458033700000    0.00257865960000
C        -0.17629445320000    1.50385089970000    0.00072846410000
C         1.16727938370000    1.84750829490000   -0.00266481320000
O         1.64548522940000    3.12169878130000   -0.00331956000000
C         0.72734161710000    4.18755336430000   -0.00083442870000
C         2.13113397400000    0.84060419230000   -0.00602322920000
H         3.51539182070000   -3.48923624080000    0.02167647330000
H         1.70150981250000   -3.29960169850000    0.05633380920000
H         3.82901103580000   -1.10153480230000   -0.03453668670000
H         0.12610499990000   -1.86954561650000   -0.00499579410000
H        -2.64973780460000    0.72402037150000    0.00604074440000
H        -0.94365949540000    2.26166015650000    0.00327879540000
H         1.32963298720000    5.09456437460000   -0.00304665430000
H         0.09819101820000    4.17481766210000    0.89514934440000
H         0.09257610390000    4.17419987490000   -0.89282648600000
H         3.16980087200000    1.13296068710000   -0.00854551990000
$end

$rem
BASIS = 6-31G*
GUI = 2
METHOD = B3LYP
PRINT_ORBITALS false
MOLDEN_FORMAT false
--------------------------------------------------------------
 ----------------------------------------------------------------
             Standard Nuclear Orientation (Angstroms)
    I     Atom           X                Y                Z
 ----------------------------------------------------------------
    1      C       0.2798386730    -3.8646855565    -0.0194569448
    2      C      -0.7786727235    -3.0646354327     0.0103990303
    3      C      -0.7707320310    -1.6050761426     0.0066202631
    4      C       0.4086722442    -0.8599007362     0.0044386448
    5      C       0.3695361476     0.5287110822    -0.0002550834
    6      C       1.5663202813     1.3575954115    -0.0026576306
    7      C       2.8357463519     0.9797048167     0.0009525241
    8      F       3.3278333632    -0.2533253511     0.0075589478
    9      F       3.8498751530     1.8451606067    -0.0018716548
   10      C      -0.8646552396     1.1875302392    -0.0027681350
   11      C      -2.0444287594     0.4585411510     0.0006852600
   12      O      -3.2937584589     0.9983716052    -0.0003335110
   13      C      -3.4241335834     2.3990937308    -0.0047736198
   14      C      -1.9882216021    -0.9341885637     0.0059311598
   15      H       0.1690153709    -4.9354825414    -0.0148144862
   16      H       1.2911587911    -3.4978282116    -0.0505146617
   17      H      -1.7679482628    -3.5043935250     0.0380173177
   18      H       1.3545646075    -1.3710296195     0.0080472094
   19      H       1.4132169478     2.4274322825    -0.0079745280
   20      H      -0.8778443023     2.2659274860    -0.0067566792
   21      H      -4.4951755961     2.5947886173    -0.0036423776
   22      H      -2.9777034086     2.8420987056    -0.9010025454
   23      H      -2.9747342825     2.8480808795     0.8869697354
   24      H      -2.9194773933    -1.4792242139     0.0084606559
 ----------------------------------------------------------------
 Molecular Point Group                 C1    NOp =  1
 Largest Abelian Subgroup              C1    NOp =  1
 Nuclear Repulsion Energy =         837.07331428 hartrees
 There are       51 alpha and       51 beta electrons
 Requested basis set is 6-31G(d)
 There are 76 shells and 230 basis functions

 Total QAlloc Memory Limit   4000 MB
 Mega-Array Size       188 MB
 MEM_STATIC part       192 MB
 A cutoff of  1.0D-08 yielded   1832 shell pairs
 There are     17997 function pairs
 Smallest overlap matrix eigenvalue = 3.63E-04

 Scale SEOQF with 1.000000e-01/1.000000e-01/1.000000e+00

 Standard Electronic Orientation quadrupole field applied
 Nucleus-field energy     =     0.0000000444 hartrees
 Guess from superposition of atomic densities
 Warning:  Energy on first SCF cycle will be non-variational
 SAD guess density has 102.000000 electrons

 -----------------------------------------------------------------------
  General SCF calculation program by
  Eric Jon Sundstrom, Paul Horn, Yuezhi Mao, Dmitri Zuev, Alec White,
  David Stuck, Shaama M.S., Shane Yost, Joonho Lee, David Small,
  Daniel Levine, Susi Lehtola, Hugh Burton, Evgeny Epifanovsky,
  Bang C. Huynh
 -----------------------------------------------------------------------
 Exchange:     0.2000 Hartree-Fock + 0.0800 Slater + 0.7200 B88
 Correlation:  0.1900 VWN1RPA + 0.8100 LYP
 Using SG-1 standard quadrature grid
 A restricted SCF calculation will be
 performed using DIIS
 SCF converges when DIIS error is below 1.0e-05
 ---------------------------------------
  Cycle       Energy         DIIS error
 ---------------------------------------
    1    -703.1492409344      5.26e-02  
    2    -699.8076873609      5.83e-03  
    3    -699.6267784524      7.77e-03  
    4    -700.0217726570      1.52e-03  
    5    -700.0366283603      4.73e-04  
    6    -700.0377304799      2.34e-04  
    7    -700.0380759392      4.51e-05  
    8    -700.0380867189      1.74e-05  
    9    -700.0380886049      5.98e-06  Convergence criterion met
 ---------------------------------------
 SCF time:   CPU 32.90s  wall 33.00s 
 SCF   energy in the final basis set =     -700.0380886049
 Total energy in the final basis set =     -700.0380886049
 
 --------------------------------------------------------------
 
                    Orbital Energies (a.u.)
 --------------------------------------------------------------
 
 Alpha MOs
 -- Occupied --
-24.7444 -24.7337 -19.1795 -10.3565 -10.2473 -10.2421 -10.2070 -10.2028
-10.1955 -10.1885 -10.1875 -10.1812 -10.1787 -10.1785  -1.2852  -1.2240
 -1.0702  -0.8681  -0.8139  -0.7862  -0.7497  -0.7283  -0.6991  -0.6476
 -0.6238  -0.6061  -0.5762  -0.5560  -0.5376  -0.5187  -0.5037  -0.4915
 -0.4807  -0.4735  -0.4629  -0.4406  -0.4385  -0.4354  -0.4292  -0.4113
 -0.3988  -0.3895  -0.3831  -0.3581  -0.3494  -0.3376  -0.3305  -0.3173
 -0.2601  -0.2207  -0.2135
 -- Virtual --
 -0.0298  -0.0209   0.0603   0.0811   0.0840   0.1038   0.1149   0.1213
  0.1381   0.1487   0.1535   0.1620   0.1661   0.1825   0.1904   0.1930
  0.2095   0.2425   0.2603   0.2871   0.3120   0.3210   0.3563   0.3593
  0.4074   0.4311   0.4359   0.4772   0.4967   0.5141   0.5200   0.5246
  0.5296   0.5374   0.5525   0.5547   0.5671   0.5753   0.5797   0.5871
  0.5882   0.6115   0.6229   0.6253   0.6379   0.6393   0.6477   0.6922
  0.7026   0.7367   0.7429   0.7486   0.7785   0.7894   0.8265   0.8312
  0.8430   0.8457   0.8633   0.8712   0.8857   0.8898   0.9215   0.9319
  0.9357   0.9555   0.9647   0.9842   1.0296   1.0447   1.0510   1.0621
  1.0923   1.1019   1.1149   1.1477   1.1605   1.1769   1.2154   1.2180
  1.2270   1.2402   1.2495   1.2830   1.3180   1.3314   1.3436   1.3662
  1.3763   1.4040   1.4149   1.4449   1.4553   1.4576   1.4769   1.4833
  1.5038   1.5171   1.5263   1.5405   1.6119   1.6542   1.6786   1.6932
  1.7497   1.7824   1.7825   1.7913   1.8185   1.8370   1.8448   1.8685
  1.8782   1.8960   1.8977   1.9524   1.9583   1.9639   1.9758   1.9852
  1.9907   2.0054   2.0232   2.0310   2.0353   2.0954   2.1130   2.1137
  2.1323   2.1561   2.1884   2.2171   2.2276   2.2408   2.2551   2.2663
  2.2926   2.3296   2.3352   2.3833   2.4167   2.4265   2.4865   2.5225
  2.5229   2.5750   2.5797   2.6002   2.6415   2.6437   2.6863   2.7089
  2.7187   2.7744   2.8116   2.8734   2.9173   2.9449   3.0085   3.0567
  3.0816   3.1530   3.2020   3.3472   3.4869   4.0549   4.0826   4.0956
  4.1270   4.1567   4.2146   4.2411   4.2729   4.3491   4.4920   4.5438
  4.7551   4.8481   5.3203
 --------------------------------------------------------------
 
          Ground-State Mulliken Net Atomic Charges

     Atom                 Charge (a.u.)
  ----------------------------------------
      1 C                    -0.352907
      2 C                    -0.113633
      3 C                     0.187235
      4 C                    -0.267727
      5 C                     0.205753
      6 C                    -0.301276
      7 C                     0.546032
      8 F                    -0.232594
      9 F                    -0.250076
     10 C                    -0.275452
     11 C                     0.389209
     12 O                    -0.508683
     13 C                    -0.213901
     14 C                    -0.256635
     15 H                     0.144470
     16 H                     0.147610
     17 H                     0.128374
     18 H                     0.132746
     19 H                     0.156679
     20 H                     0.127753
     21 H                     0.170515
     22 H                     0.151011
     23 H                     0.151004
     24 H                     0.134494
  ----------------------------------------
  Sum of atomic charges =     0.000000

 -----------------------------------------------------------------
                    Cartesian Multipole Moments
 -----------------------------------------------------------------
    Charge (ESU x 10^10)
                 0.0000
    Dipole Moment (Debye)
         X      -1.0699      Y       1.5162      Z      -0.0066
       Tot       1.8557
    Quadrupole Moments (Debye-Ang)
        XX     -79.5313     XY      -5.3519     YY     -68.5945
        XZ      -0.0647     YZ      -0.0346     ZZ     -82.2707
    Octopole Moments (Debye-Ang^2)
       XXX      13.5640    XXY      12.4804    XYY      -9.0832
       YYY      20.2209    XXZ      -0.0162    XYZ       0.3315
       YYZ      -0.0104    XZZ      16.3976    YZZ      11.8175
       ZZZ       0.0551
    Hexadecapole Moments (Debye-Ang^3)
      XXXX   -2424.2129   XXXY     -64.0917   XXYY    -623.0970
      XYYY     -15.2118   YYYY   -1632.1954   XXXZ       0.0800
      XXYZ      -0.2495   XYYZ      -0.8539   YYYZ      -0.3137
      XXZZ    -413.4403   XYZZ       6.7839   YYZZ    -332.3870
      XZZZ       0.2068   YZZZ      -0.1676   ZZZZ     -85.1946
 -----------------------------------------------------------------
Archival summary:
1\1\nia2015.scinet.local\SP\ProcedureUnspecified\6-31G*\211110\rhickman\TueFeb816:58:442022TueFeb816:58:442022\0\\#,ProcedureUnspecified,6-31G*,\\0,1\F\C,1,1.32761\C,2,1.32448,1,128.334\H,3,1.08075,2,114.722,1,179.998,0\F,2,1.33322,1,108.721,3,-179.995,0\C,3,1.4558,2,128.716,1,0.00638564,0\C,6,1.38917,3,123.092,2,-0.106502,0\H,7,1.07516,6,120,3,0.0969837,0\C,7,1.39509,6,120.671,3,179.997,0\C,9,1.3901,7,118.858,6,-0.0901348,0\H,10,1.07903,9,120.804,7,-179.945,0\C,10,1.39387,9,121.168,7,0.116879,0\O,12,1.36097,10,115.68,9,179.959,0\C,12,1.38683,10,119.401,9,-0.0549766,0\H,14,1.07849,12,121.012,10,-179.994,0\C,13,1.40678,12,118.687,10,179.964,0\H,16,1.08877,13,105.672,12,-179.937,0\H,16,1.09488,13,111.574,12,-61.342,0\H,16,1.09489,13,111.572,12,61.4678,0\C,9,1.45959,7,122.597,6,179.947,0\H,20,1.08297,9,114.274,7,178.475,0\C,20,1.32718,9,126.756,7,-1.7083,0\H,22,1.07625,20,122.998,9,0.0133923,0\H,22,1.07653,20,121.158,9,-179.92,0\\\@

 Total job time:  34.35s(wall), 33.09s(cpu) 
 Tue Feb  8 16:58:44 2022

        *************************************************************
        *                                                           *
        *  Thank you very much for using Q-Chem.  Have a nice day.  *
        *                                                           *
        *************************************************************


