
Running Job 1 of 1 fragments/B004/conf-2/spe_input.inp
qchem fragments/B004/conf-2/spe_input.inp_324013.0 /gpfs/fs0/scratch/a/aspuru/rhickman/descriptor_computation/qchem324013/ 0
/scinet/niagara/software/commercial/qc52/exe/qcprog.exe_s fragments/B004/conf-2/spe_input.inp_324013.0 /gpfs/fs0/scratch/a/aspuru/rhickman/descriptor_computation/qchem324013/
                  Welcome to Q-Chem
     A Quantum Leap Into The Future Of Chemistry


 Q-Chem 5.2, Q-Chem, Inc., Pleasanton, CA (2019)

 License issued to: SRG Alan Aspuru-Guzik, University of Toronto

 Yihan Shao,  Zhengting Gan,  E. Epifanovsky,  A. T. B. Gilbert,  M. Wormit,  
 J. Kussmann,  A. W. Lange,  A. Behn,  Jia Deng,  Xintian Feng,  D. Ghosh,  
 M. Goldey,  P. R. Horn,  L. D. Jacobson,  I. Kaliman,  T. Kus,  A. Landau,  
 Jie Liu,  E. I. Proynov,  R. M. Richard,  R. P. Steele,  E. J. Sundstrom,  
 H. L. Woodcock III,  P. M. Zimmerman,  D. Zuev,  B. Albrecht,  E. Alguire,  
 S. A. Baeppler,  D. Barton,  Z. Benda,  Y. A. Bernard,  E. J. Berquist,  
 K. B. Bravaya,  H. Burton,  D. Casanova,  Chun-Min Chang,  Yunqing Chen,  
 A. Chien,  K. D. Closser,  M. P. Coons,  S. Coriani,  S. Dasgupta,  
 A. L. Dempwolff,  M. Diedenhofen,  Hainam Do,  R. G. Edgar,  Po-Tung Fang,  
 S. Faraji,  S. Fatehi,  Qingguo Feng,  K. D. Fenk,  J. Fosso-Tande,  
 J. Gayvert,  Qinghui Ge,  A. Ghysels,  G. Gidofalvi,  J. Gomes,  
 J. Gonthier,  A. Gunina,  D. Hait,  M. W. D. Hanson-Heine,  
 P. H. P. Harbach,  A. W. Hauser,  M. F. Herbst,  J. E. Herr,  
 E. G. Hohenstein,  Z. C. Holden,  Kerwin Hui,  B. C. Huynh,  T.-C. Jagau,  
 Hyunjun Ji,  B. Kaduk,  K. Khistyaev,  Jaehoon Kim,  P. Klunzinger,  K. Koh,  
 D. Kosenkov,  L. Koulias,  T. Kowalczyk,  C. M. Krauter,  A. Kunitsa,  
 Ka Un Lao,  A. Laurent,  K. V. Lawler,  Joonho Lee,  D. Lefrancois,  
 S. Lehtola,  D. S. Levine,  Yi-Pei Li,  You-Sheng Lin,  Fenglai Liu,  
 E. Livshits,  A. Luenser,  P. Manohar,  E. Mansoor,  S. F. Manzer,  
 Shan-Ping Mao,  Yuezhi Mao,  N. Mardirossian,  A. V. Marenich,  
 T. Markovich,  L. A. Martinez-Martinez,  S. A. Maurer,  N. J. Mayhall,  
 S. C. McKenzie,  J.-M. Mewes,  P. Morgante,  A. F. Morrison,  
 J. W. Mullinax,  K. Nanda,  T. S. Nguyen-Beck,  R. Olivares-Amaya,  
 J. A. Parkhill,  Zheng Pei,  T. M. Perrine,  F. Plasser,  P. Pokhilko,  
 S. Prager,  A. Prociuk,  E. Ramos,  D. R. Rehn,  F. Rob,  M. Scheurer,  
 M. Schneider,  N. Sergueev,  S. M. Sharada,  S. Sharma,  D. W. Small,  
 T. Stauch,  T. Stein,  Yu-Chuan Su,  A. J. W. Thom,  A. Tkatchenko,  
 T. Tsuchimochi,  N. M. Tubman,  L. Vogt,  M. L. Vidal,  O. Vydrov,  
 M. A. Watson,  J. Wenzel,  M. de Wergifosse,  T. A. Wesolowski,  A. White,  
 J. Witte,  A. Yamada,  Jun Yang,  K. Yao,  S. Yeganeh,  S. R. Yost,  
 Zhi-Qiang You,  A. Zech,  Igor Ying Zhang,  Xing Zhang,  Yan Zhao,  
 Ying Zhu,  B. R. Brooks,  G. K. L. Chan,  C. J. Cramer,  M. S. Gordon,  
 W. J. Hehre,  A. Klamt,  M. W. Schmidt,  C. D. Sherrill,  D. G. Truhlar,  
 A. Aspuru-Guzik,  R. Baer,  A. T. Bell,  N. A. Besley,  Jeng-Da Chai,  
 A. E. DePrince, III,  R. A. DiStasio Jr.,  A. Dreuw,  B. D. Dunietz,  
 T. R. Furlani,  Chao-Ping Hsu,  Yousung Jung,  Jing Kong,  D. S. Lambrecht,  
 WanZhen Liang,  C. Ochsenfeld,  V. A. Rassolov,  L. V. Slipchenko,  
 J. E. Subotnik,  T. Van Voorhis,  J. M. Herbert,  A. I. Krylov,  
 P. M. W. Gill,  M. Head-Gordon

 Contributors to earlier versions of Q-Chem not listed above: 
 R. D. Adamson,  B. Austin,  J. Baker,  G. J. O. Beran,  K. Brandhorst,  
 S. T. Brown,  E. F. C. Byrd,  A. K. Chakraborty,  C.-L. Cheng,  
 Siu Hung Chien,  D. M. Chipman,  D. L. Crittenden,  H. Dachsel,  
 R. J. Doerksen,  A. D. Dutoi,  L. Fusti-Molnar,  W. A. Goddard III,  
 A. Golubeva-Zadorozhnaya,  S. R. Gwaltney,  G. Hawkins,  A. Heyden,  
 S. Hirata,  G. Kedziora,  F. J. Keil,  C. Kelley,  Jihan Kim,  R. A. King,  
 R. Z. Khaliullin,  P. P. Korambath,  W. Kurlancheek,  A. M. Lee,  M. S. Lee,  
 S. V. Levchenko,  Ching Yeh Lin,  D. Liotard,  R. C. Lochan,  I. Lotan,  
 P. E. Maslen,  N. Nair,  D. P. O'Neill,  D. Neuhauser,  E. Neuscamman,  
 C. M. Oana,  R. Olson,  B. Peters,  R. Peverati,  P. A. Pieniazek,  
 Y. M. Rhee,  J. Ritchie,  M. A. Rohrdanz,  E. Rosta,  N. J. Russ,  
 H. F. Schaefer III,  N. E. Schultz,  N. Shenvi,  A. C. Simmonett,  A. Sodt,  
 D. Stuck,  K. S. Thanthiriwatte,  V. Vanovschi,  Tao Wang,  A. Warshel,  
 C. F. Williams,  Q. Wu,  X. Xu,  W. Zhang

 Please cite Q-Chem as follows:
 Y. Shao et al., Mol. Phys. 113, 184-215 (2015)
 DOI: 10.1080/00268976.2014.952696

 Q-Chem 5.2.1 for Intel X86 EM64T Linux

 Parts of Q-Chem use Armadillo 8.300.2 (Tropical Shenanigans).
 http://arma.sourceforge.net/

 Q-Chem begins on Tue Feb  8 14:36:05 2022  

Host: 
0

     Scratch files written to /gpfs/fs0/scratch/a/aspuru/rhickman/descriptor_computation/qchem324013//
 Jul1719 |scratch|qcdevops|jenkins|workspace|build_RNUM -1
Processing $rem in /scinet/niagara/software/commercial/qc52/config/preferences:
	 MEM_TOTAL  4000 
NAlpha2: 86
NElect   86
Mult     1

Checking the input file for inconsistencies... 	...done.

--------------------------------------------------------------
User input:
--------------------------------------------------------------
$molecule
0 1
C        -0.64259023040000   -2.36714480190000    0.64318592240000
C        -1.11738378350000   -1.53853387900000   -0.27450636460000
C        -1.15769844610000   -0.07941677120000   -0.14662668500000
N        -2.28761742000000    0.47608603990000   -0.57153367230000
C        -2.49011189150000    1.76650824420000   -0.40375737840000
C        -1.57856084730000    2.59845367350000    0.23025547040000
C        -0.37472229230000    2.04793997630000    0.63029890840000
C        -0.12437558550000    0.69339670910000    0.41714658880000
C         1.20085386940000    0.17249093130000    0.75487728230000
C         1.92952579970000   -0.61301068410000   -0.01872417840000
F         1.58857734080000   -1.09621787960000   -1.20549752100000
F         3.15243097020000   -1.03456559560000    0.29482542780000
H        -0.69009362420000   -3.43455687780000    0.51410813760000
H        -0.20037456220000   -2.01659849280000    1.56181342640000
H        -1.60750927810000   -1.91769317490000   -1.15981132790000
H        -3.42945784940000    2.14461040090000   -0.78502203110000
H        -1.79329470820000    3.64363740360000    0.38660762130000
H         0.38648650190000    2.66474103500000    1.08706686990000
H         1.65814986860000    0.51859226480000    1.67003137920000
$end

$rem
BASIS = 6-31G*
GUI = 2
METHOD = B3LYP
PRINT_ORBITALS false
MOLDEN_FORMAT false
--------------------------------------------------------------
 ----------------------------------------------------------------
             Standard Nuclear Orientation (Angstroms)
    I     Atom           X                Y                Z
 ----------------------------------------------------------------
    1      C       0.9308310105     2.1400343228    -0.9909046673
    2      C       0.0461035898     1.9072710305    -0.0331663137
    3      C      -0.8355881563     0.7385712121     0.0281657167
    4      N      -2.0845027629     1.0137001233     0.3892233244
    5      C      -2.9987985984     0.0660449238     0.3703789835
    6      C      -2.7329566017    -1.2326209740    -0.0392863857
    7      C      -1.4273545838    -1.5497078472    -0.3666800864
    8      C      -0.4375781360    -0.5701344434    -0.3060716911
    9      C       0.9482538708    -0.9695492380    -0.5542156610
   10      C       1.9848523540    -0.6221397212     0.1882161555
   11      F       1.9694096964     0.1668100283     1.2538079296
   12      F       3.2292204702    -1.0384385298    -0.0348583795
   13      H       1.5126934539     3.0452248994    -1.0096744233
   14      H       1.1012730388     1.4461627685    -1.7982495033
   15      H      -0.1459782555     2.6456831969     0.7320798477
   16      H      -3.9887224823     0.3667427452     0.6871223011
   17      H      -3.5143314277    -1.9747238299    -0.0805463949
   18      H      -1.1611498870    -2.5590692218    -0.6474718597
   19      H       1.1334749076    -1.6678804995    -1.3569854921
 ----------------------------------------------------------------
 Molecular Point Group                 C1    NOp =  1
 Largest Abelian Subgroup              C1    NOp =  1
 Nuclear Repulsion Energy =         666.61041792 hartrees
 There are       43 alpha and       43 beta electrons
 Requested basis set is 6-31G(d)
 There are 62 shells and 194 basis functions

 Total QAlloc Memory Limit   4000 MB
 Mega-Array Size       188 MB
 MEM_STATIC part       192 MB
 A cutoff of  1.0D-08 yielded   1452 shell pairs
 There are     15360 function pairs
 Smallest overlap matrix eigenvalue = 6.59E-04

 Scale SEOQF with 1.000000e-01/1.000000e-01/1.000000e-01

 Standard Electronic Orientation quadrupole field applied
 Nucleus-field energy     =     0.0000000184 hartrees
 Guess from superposition of atomic densities
 Warning:  Energy on first SCF cycle will be non-variational
 SAD guess density has 86.000000 electrons

 -----------------------------------------------------------------------
  General SCF calculation program by
  Eric Jon Sundstrom, Paul Horn, Yuezhi Mao, Dmitri Zuev, Alec White,
  David Stuck, Shaama M.S., Shane Yost, Joonho Lee, David Small,
  Daniel Levine, Susi Lehtola, Hugh Burton, Evgeny Epifanovsky,
  Bang C. Huynh
 -----------------------------------------------------------------------
 Exchange:     0.2000 Hartree-Fock + 0.0800 Slater + 0.7200 B88
 Correlation:  0.1900 VWN1RPA + 0.8100 LYP
 Using SG-1 standard quadrature grid
 A restricted SCF calculation will be
 performed using DIIS
 SCF converges when DIIS error is below 1.0e-05
 ---------------------------------------
  Cycle       Energy         DIIS error
 ---------------------------------------
    1    -604.2637626911      5.75e-02  
    2    -601.3581973584      6.22e-03  
    3    -601.2297994489      8.24e-03  
    4    -601.5309722339      1.48e-03  
    5    -601.5409023579      4.29e-04  
    6    -601.5415219995      2.25e-04  
    7    -601.5417478485      5.83e-05  
    8    -601.5417631321      1.90e-05  
    9    -601.5417646973      4.64e-06  Convergence criterion met
 ---------------------------------------
 SCF time:   CPU 24.31s  wall 25.00s 
 SCF   energy in the final basis set =     -601.5417646973
 Total energy in the final basis set =     -601.5417646973
 
 --------------------------------------------------------------
 
                    Orbital Energies (a.u.)
 --------------------------------------------------------------
 
 Alpha MOs
 -- Occupied --
-24.7400 -24.7364 -14.3252 -10.3580 -10.2299 -10.2204 -10.2142 -10.2086
-10.2045 -10.1985 -10.1879 -10.1819  -1.2843  -1.2243  -0.9523  -0.8364
 -0.8061  -0.7747  -0.7376  -0.6599  -0.6365  -0.6198  -0.5767  -0.5733
 -0.5343  -0.5201  -0.5086  -0.4859  -0.4722  -0.4421  -0.4413  -0.4404
 -0.4280  -0.4149  -0.4104  -0.4004  -0.3824  -0.3560  -0.3069  -0.2958
 -0.2651  -0.2526  -0.2241
 -- Virtual --
 -0.0396  -0.0279   0.0383   0.0462   0.0920   0.1176   0.1302   0.1446
  0.1568   0.1605   0.1739   0.1818   0.1839   0.2060   0.2647   0.2803
  0.3123   0.3231   0.3376   0.3593   0.4006   0.4161   0.4384   0.4642
  0.4833   0.5025   0.5198   0.5224   0.5395   0.5626   0.5653   0.5795
  0.5881   0.5960   0.6027   0.6147   0.6384   0.6542   0.6645   0.6690
  0.6836   0.6856   0.7145   0.7500   0.7909   0.8175   0.8260   0.8375
  0.8469   0.8665   0.8766   0.8846   0.8950   0.9092   0.9317   0.9424
  0.9617   0.9846   1.0215   1.0272   1.0718   1.0755   1.1037   1.1174
  1.1478   1.1655   1.1861   1.1895   1.2415   1.2680   1.2743   1.3021
  1.3376   1.3551   1.3926   1.4096   1.4246   1.4468   1.4628   1.4898
  1.5065   1.5190   1.5352   1.5605   1.6135   1.6545   1.6794   1.7107
  1.7334   1.7571   1.7925   1.8082   1.8268   1.8433   1.8452   1.8593
  1.8807   1.9027   1.9483   1.9726   1.9895   1.9996   2.0098   2.0355
  2.0456   2.0879   2.1272   2.1605   2.1626   2.1893   2.2064   2.2323
  2.2399   2.2777   2.3272   2.3430   2.3513   2.3809   2.4155   2.4946
  2.5150   2.5421   2.5721   2.5956   2.6187   2.6607   2.6916   2.7146
  2.7456   2.7614   2.8123   2.8860   2.8923   2.9689   3.0197   3.1223
  3.1451   3.2894   3.4562   4.0634   4.0994   4.1270   4.1607   4.2116
  4.2236   4.2921   4.3856   4.4642   4.7047   4.7950   5.2697
 --------------------------------------------------------------
 
          Ground-State Mulliken Net Atomic Charges

     Atom                 Charge (a.u.)
  ----------------------------------------
      1 C                    -0.335209
      2 C                    -0.092424
      3 C                     0.222514
      4 N                    -0.468133
      5 C                     0.043224
      6 C                    -0.145652
      7 C                    -0.140294
      8 C                     0.129139
      9 C                    -0.358089
     10 C                     0.586068
     11 F                    -0.230101
     12 F                    -0.245861
     13 H                     0.148178
     14 H                     0.149462
     15 H                     0.149724
     16 H                     0.140926
     17 H                     0.137786
     18 H                     0.141271
     19 H                     0.167468
  ----------------------------------------
  Sum of atomic charges =     0.000000

 -----------------------------------------------------------------
                    Cartesian Multipole Moments
 -----------------------------------------------------------------
    Charge (ESU x 10^10)
                -0.0000
    Dipole Moment (Debye)
         X      -0.2793      Y      -1.8574      Z      -1.0151
       Tot       2.1350
    Quadrupole Moments (Debye-Ang)
        XX     -65.9651     XY       6.0303     YY     -63.5660
        XZ      -1.5945     YZ       1.2249     ZZ     -66.8749
    Octopole Moments (Debye-Ang^2)
       XXX       8.1986    XXY     -10.8031    XYY      18.0170
       YYY     -10.7572    XXZ       3.6276    XYZ      -1.3444
       YYZ       0.3936    XZZ      17.3874    YZZ      -3.0150
       ZZZ       9.0542
    Hexadecapole Moments (Debye-Ang^3)
      XXXX   -1458.1244   XXXY      20.6546   XXYY    -367.6485
      XYYY      12.7453   YYYY    -668.3739   XXXZ       0.7516
      XXYZ      -3.1743   XYYZ       5.0562   YYYZ      16.7724
      XXZZ    -292.4324   XYZZ     -10.7648   YYZZ    -148.6911
      XZZZ      13.8768   YZZZ       6.0454   ZZZZ    -194.8767
 -----------------------------------------------------------------
Archival summary:
1\1\nia2015.scinet.local\SP\ProcedureUnspecified\6-31G*\2197\rhickman\TueFeb814:36:302022TueFeb814:36:302022\0\\#,ProcedureUnspecified,6-31G*,\\0,1\F\C,1,1.32596\C,2,1.32153,1,126.781\H,3,1.08001,2,116.939,1,-176.664,0\F,2,1.33098,1,109.371,3,-179.585,0\C,3,1.46343,2,125.155,1,-1.95236,0\C,6,1.39388,3,118.246,2,-133.269,0\H,7,1.08098,6,119.514,3,-3.43349,0\C,7,1.38287,6,119.932,3,175.109,0\H,9,1.07841,7,121.147,6,179.922,0\C,9,1.38745,7,117.738,6,-1.3622,0\H,11,1.08199,9,121.457,7,-176.95,0\N,11,1.31694,9,123.007,7,3.79255,0\C,13,1.32885,11,119.975,9,-1.2687,0\C,14,1.46526,13,114.316,11,174.21,0\H,15,1.08062,14,114.106,13,36.4475,0\C,15,1.32446,14,124.917,13,-137.646,0\H,17,1.07624,15,121.438,14,176.554,0\H,17,1.07811,15,122.277,14,-2.66833,0\\\@

 Total job time:  24.66s(wall), 24.46s(cpu) 
 Tue Feb  8 14:36:30 2022

        *************************************************************
        *                                                           *
        *  Thank you very much for using Q-Chem.  Have a nice day.  *
        *                                                           *
        *************************************************************


