
Running Job 1 of 1 fragments/C088/conf-7/spe_input.inp
qchem fragments/C088/conf-7/spe_input.inp_254105.0 /gpfs/fs0/scratch/a/aspuru/rhickman/descriptor_computation/qchem254105/ 0
/scinet/niagara/software/commercial/qc52/exe/qcprog.exe_s fragments/C088/conf-7/spe_input.inp_254105.0 /gpfs/fs0/scratch/a/aspuru/rhickman/descriptor_computation/qchem254105/
                  Welcome to Q-Chem
     A Quantum Leap Into The Future Of Chemistry


 Q-Chem 5.2, Q-Chem, Inc., Pleasanton, CA (2019)

 License issued to: SRG Alan Aspuru-Guzik, University of Toronto

 Yihan Shao,  Zhengting Gan,  E. Epifanovsky,  A. T. B. Gilbert,  M. Wormit,  
 J. Kussmann,  A. W. Lange,  A. Behn,  Jia Deng,  Xintian Feng,  D. Ghosh,  
 M. Goldey,  P. R. Horn,  L. D. Jacobson,  I. Kaliman,  T. Kus,  A. Landau,  
 Jie Liu,  E. I. Proynov,  R. M. Richard,  R. P. Steele,  E. J. Sundstrom,  
 H. L. Woodcock III,  P. M. Zimmerman,  D. Zuev,  B. Albrecht,  E. Alguire,  
 S. A. Baeppler,  D. Barton,  Z. Benda,  Y. A. Bernard,  E. J. Berquist,  
 K. B. Bravaya,  H. Burton,  D. Casanova,  Chun-Min Chang,  Yunqing Chen,  
 A. Chien,  K. D. Closser,  M. P. Coons,  S. Coriani,  S. Dasgupta,  
 A. L. Dempwolff,  M. Diedenhofen,  Hainam Do,  R. G. Edgar,  Po-Tung Fang,  
 S. Faraji,  S. Fatehi,  Qingguo Feng,  K. D. Fenk,  J. Fosso-Tande,  
 J. Gayvert,  Qinghui Ge,  A. Ghysels,  G. Gidofalvi,  J. Gomes,  
 J. Gonthier,  A. Gunina,  D. Hait,  M. W. D. Hanson-Heine,  
 P. H. P. Harbach,  A. W. Hauser,  M. F. Herbst,  J. E. Herr,  
 E. G. Hohenstein,  Z. C. Holden,  Kerwin Hui,  B. C. Huynh,  T.-C. Jagau,  
 Hyunjun Ji,  B. Kaduk,  K. Khistyaev,  Jaehoon Kim,  P. Klunzinger,  K. Koh,  
 D. Kosenkov,  L. Koulias,  T. Kowalczyk,  C. M. Krauter,  A. Kunitsa,  
 Ka Un Lao,  A. Laurent,  K. V. Lawler,  Joonho Lee,  D. Lefrancois,  
 S. Lehtola,  D. S. Levine,  Yi-Pei Li,  You-Sheng Lin,  Fenglai Liu,  
 E. Livshits,  A. Luenser,  P. Manohar,  E. Mansoor,  S. F. Manzer,  
 Shan-Ping Mao,  Yuezhi Mao,  N. Mardirossian,  A. V. Marenich,  
 T. Markovich,  L. A. Martinez-Martinez,  S. A. Maurer,  N. J. Mayhall,  
 S. C. McKenzie,  J.-M. Mewes,  P. Morgante,  A. F. Morrison,  
 J. W. Mullinax,  K. Nanda,  T. S. Nguyen-Beck,  R. Olivares-Amaya,  
 J. A. Parkhill,  Zheng Pei,  T. M. Perrine,  F. Plasser,  P. Pokhilko,  
 S. Prager,  A. Prociuk,  E. Ramos,  D. R. Rehn,  F. Rob,  M. Scheurer,  
 M. Schneider,  N. Sergueev,  S. M. Sharada,  S. Sharma,  D. W. Small,  
 T. Stauch,  T. Stein,  Yu-Chuan Su,  A. J. W. Thom,  A. Tkatchenko,  
 T. Tsuchimochi,  N. M. Tubman,  L. Vogt,  M. L. Vidal,  O. Vydrov,  
 M. A. Watson,  J. Wenzel,  M. de Wergifosse,  T. A. Wesolowski,  A. White,  
 J. Witte,  A. Yamada,  Jun Yang,  K. Yao,  S. Yeganeh,  S. R. Yost,  
 Zhi-Qiang You,  A. Zech,  Igor Ying Zhang,  Xing Zhang,  Yan Zhao,  
 Ying Zhu,  B. R. Brooks,  G. K. L. Chan,  C. J. Cramer,  M. S. Gordon,  
 W. J. Hehre,  A. Klamt,  M. W. Schmidt,  C. D. Sherrill,  D. G. Truhlar,  
 A. Aspuru-Guzik,  R. Baer,  A. T. Bell,  N. A. Besley,  Jeng-Da Chai,  
 A. E. DePrince, III,  R. A. DiStasio Jr.,  A. Dreuw,  B. D. Dunietz,  
 T. R. Furlani,  Chao-Ping Hsu,  Yousung Jung,  Jing Kong,  D. S. Lambrecht,  
 WanZhen Liang,  C. Ochsenfeld,  V. A. Rassolov,  L. V. Slipchenko,  
 J. E. Subotnik,  T. Van Voorhis,  J. M. Herbert,  A. I. Krylov,  
 P. M. W. Gill,  M. Head-Gordon

 Contributors to earlier versions of Q-Chem not listed above: 
 R. D. Adamson,  B. Austin,  J. Baker,  G. J. O. Beran,  K. Brandhorst,  
 S. T. Brown,  E. F. C. Byrd,  A. K. Chakraborty,  C.-L. Cheng,  
 Siu Hung Chien,  D. M. Chipman,  D. L. Crittenden,  H. Dachsel,  
 R. J. Doerksen,  A. D. Dutoi,  L. Fusti-Molnar,  W. A. Goddard III,  
 A. Golubeva-Zadorozhnaya,  S. R. Gwaltney,  G. Hawkins,  A. Heyden,  
 S. Hirata,  G. Kedziora,  F. J. Keil,  C. Kelley,  Jihan Kim,  R. A. King,  
 R. Z. Khaliullin,  P. P. Korambath,  W. Kurlancheek,  A. M. Lee,  M. S. Lee,  
 S. V. Levchenko,  Ching Yeh Lin,  D. Liotard,  R. C. Lochan,  I. Lotan,  
 P. E. Maslen,  N. Nair,  D. P. O'Neill,  D. Neuhauser,  E. Neuscamman,  
 C. M. Oana,  R. Olson,  B. Peters,  R. Peverati,  P. A. Pieniazek,  
 Y. M. Rhee,  J. Ritchie,  M. A. Rohrdanz,  E. Rosta,  N. J. Russ,  
 H. F. Schaefer III,  N. E. Schultz,  N. Shenvi,  A. C. Simmonett,  A. Sodt,  
 D. Stuck,  K. S. Thanthiriwatte,  V. Vanovschi,  Tao Wang,  A. Warshel,  
 C. F. Williams,  Q. Wu,  X. Xu,  W. Zhang

 Please cite Q-Chem as follows:
 Y. Shao et al., Mol. Phys. 113, 184-215 (2015)
 DOI: 10.1080/00268976.2014.952696

 Q-Chem 5.2.1 for Intel X86 EM64T Linux

 Parts of Q-Chem use Armadillo 8.300.2 (Tropical Shenanigans).
 http://arma.sourceforge.net/

 Q-Chem begins on Mon Feb  7 08:37:21 2022  

Host: 
0

     Scratch files written to /gpfs/fs0/scratch/a/aspuru/rhickman/descriptor_computation/qchem254105//
 Jul1719 |scratch|qcdevops|jenkins|workspace|build_RNUM -1
Processing $rem in /scinet/niagara/software/commercial/qc52/config/preferences:
	 MEM_TOTAL  4000 
NAlpha2: 136
NElect   136
Mult     1

Checking the input file for inconsistencies... 	...done.

--------------------------------------------------------------
User input:
--------------------------------------------------------------
$molecule
0 1
C        -5.83076513660000   -0.03882430440000   -0.46684684500000
C        -4.83977204290000    0.67028205370000    0.06595765880000
C        -3.46627197650000    0.25330081130000    0.12649298810000
C        -2.41200121670000    0.94743413360000    0.65705457410000
C        -1.17360022570000    0.27478236980000    0.58938544330000
C         0.10471237140000    0.93442223260000    1.00305187280000
C         0.47440218160000    2.03901988420000    0.00576277050000
C         1.79029947360000    2.73924036850000    0.34712542160000
C         3.01025986490000    1.81740065600000    0.41046379630000
C         3.25614521510000    1.05197583390000   -0.88815350660000
C         4.55255942930000    0.24168389570000   -0.86929669120000
C         4.50252047850000   -0.94906776140000    0.08619444940000
C         5.75235031530000   -1.81355730130000   -0.02640585030000
C        -1.28512001510000   -0.96078585750000   -0.00320773500000
C        -0.31000159690000   -1.99364303540000   -0.27664851440000
C         0.72032942530000   -2.33549660650000    0.48957667060000
S        -2.92789751960000   -1.27491093060000   -0.49983756840000
H        -6.84242837440000    0.32558720710000   -0.48488169390000
H        -5.65433630050000   -1.00888876280000   -0.90180822780000
H        -5.03323344650000    1.64378156170000    0.49938470890000
H        -2.52284320610000    1.92479447280000    1.09464643660000
H         0.90564107640000    0.20175836770000    1.03287493940000
H        -0.01068392780000    1.36817369150000    1.99951032850000
H        -0.32199942950000    2.78668264880000   -0.01446654180000
H         0.53583557280000    1.60516734790000   -0.99384662580000
H         1.68479773540000    3.24014421730000    1.31314701000000
H         1.97034873220000    3.51112916220000   -0.40552754120000
H         2.89272546380000    1.11572533940000    1.23650727790000
H         3.88848860660000    2.43064255020000    0.62915963890000
H         3.29881899190000    1.76827093060000   -1.71270184910000
H         2.42511855130000    0.37078085330000   -1.08038806480000
H         5.38663832980000    0.89224702110000   -0.59520157480000
H         4.74448306680000   -0.13177124970000   -1.87850820510000
H         3.62093335320000   -1.55289468480000   -0.14228057810000
H         4.40709662720000   -0.59485051170000    1.11402385410000
H         5.85672224310000   -2.20498723130000   -1.03622109190000
H         5.70226787380000   -2.65308341300000    0.66339197820000
H         6.64101940480000   -1.23078054220000    0.20677658260000
H        -0.50296386090000   -2.55779585070000   -1.18179380480000
H         0.92611335770000   -1.86310354600000    1.43432115960000
H         1.38444326140000   -3.13216452350000    0.20096377260000
$end

$rem
BASIS = 6-31G*
GUI = 2
METHOD = B3LYP
PRINT_ORBITALS false
MOLDEN_FORMAT false
--------------------------------------------------------------
 ----------------------------------------------------------------
             Standard Nuclear Orientation (Angstroms)
    I     Atom           X                Y                Z
 ----------------------------------------------------------------
    1      C       5.9581055145    -0.0848817485     0.4938073114
    2      C       4.9663409625     0.6715819355     0.0323470786
    3      C       3.5951866351     0.2572799114    -0.0786932678
    4      C       2.5402071790     0.9983470811    -0.5398237242
    5      C       1.3047508121     0.3169988117    -0.5492376684
    6      C       0.0253244387     1.0106294796    -0.8989123900
    7      C      -0.3546151139     2.0038037989     0.2059146504
    8      C      -1.6721782219     2.7301056248    -0.0678297253
    9      C      -2.8873440676     1.8146436885    -0.2333741975
   10      C      -3.1359367611     0.9171351213     0.9771718396
   11      C      -4.4283129961     0.1076549416     0.8670631427
   12      C      -4.3678068576    -0.9769272692    -0.2068908416
   13      C      -5.6139869555    -1.8537957946    -0.1916472942
   14      C       1.4193108793    -0.9730586892    -0.0878703330
   15      C       0.4478549501    -2.0329444493     0.0713003065
   16      C      -0.5770178602    -2.2975881996    -0.7319097044
   17      S       3.0611149797    -1.3301286919     0.3822509186
   18      H       6.9678953703     0.2800089258     0.5551486111
   19      H       5.7842194831    -1.0957054476     0.8244773730
   20      H       5.1572349886     1.6857353254    -0.2963472885
   21      H       2.6484856715     2.0164194173    -0.8727055405
   22      H      -0.7718989400     0.2816222403    -1.0091660709
   23      H       0.1435417153     1.5462533503    -1.8441731119
   24      H       0.4380561877     2.7487076514     0.3081634595
   25      H      -0.4188858355     1.4679828790     1.1545906995
   26      H      -1.5643298861     3.3293052236    -0.9758834512
   27      H      -1.8596670379     3.4186640089     0.7600904540
   28      H      -2.7623454893     1.2032888635    -1.1273154999
   29      H      -3.7674344580     2.4435475844    -0.3918040230
   30      H      -3.1861397384     1.5435069723     1.8715529951
   31      H      -2.3025884644     0.2232003157     1.1019562327
   32      H      -5.2641614006     0.7796337891     0.6576592302
   33      H      -4.6234099906    -0.3696568200     1.8308691154
   34      H      -3.4844519148    -1.5974711149    -0.0377369715
   35      H      -4.2690225175    -0.5172244416    -1.1917379470
   36      H      -5.7214504846    -2.3486717369     0.7713621052
   37      H      -5.5564454230    -2.6167245838    -0.9647980053
   38      H      -6.5042987769    -1.2537278434    -0.3677122343
   39      H       0.6390695194    -2.6874306134     0.9138415106
   40      H      -0.7804150860    -1.7302947817    -1.6234545022
   41      H      -1.2386923914    -3.1228155567    -0.5313829332
 ----------------------------------------------------------------
 Molecular Point Group                 C1    NOp =  1
 Largest Abelian Subgroup              C1    NOp =  1
 Nuclear Repulsion Energy =        1286.42808076 hartrees
 There are       68 alpha and       68 beta electrons
 Requested basis set is 6-31G(d)
 There are 117 shells and 307 basis functions

 Total QAlloc Memory Limit   4000 MB
 Mega-Array Size       188 MB
 MEM_STATIC part       192 MB
 A cutoff of  1.0D-08 yielded   3789 shell pairs
 There are     26993 function pairs
 Smallest overlap matrix eigenvalue = 6.96E-04

 Scale SEOQF with 1.000000e-02/1.000000e-01/1.000000e-01

 Standard Electronic Orientation quadrupole field applied
 Nucleus-field energy     =     0.0000000225 hartrees
 Guess from superposition of atomic densities
 Warning:  Energy on first SCF cycle will be non-variational
 SAD guess density has 136.000000 electrons

 -----------------------------------------------------------------------
  General SCF calculation program by
  Eric Jon Sundstrom, Paul Horn, Yuezhi Mao, Dmitri Zuev, Alec White,
  David Stuck, Shaama M.S., Shane Yost, Joonho Lee, David Small,
  Daniel Levine, Susi Lehtola, Hugh Burton, Evgeny Epifanovsky,
  Bang C. Huynh
 -----------------------------------------------------------------------
 Exchange:     0.2000 Hartree-Fock + 0.0800 Slater + 0.7200 B88
 Correlation:  0.1900 VWN1RPA + 0.8100 LYP
 Using SG-1 standard quadrature grid
 A restricted SCF calculation will be
 performed using DIIS
 SCF converges when DIIS error is below 1.0e-05
 ---------------------------------------
  Cycle       Energy         DIIS error
 ---------------------------------------
    1   -1025.8283621905      4.50e-02  
    2   -1021.9521075279      5.20e-03  
    3   -1021.8317932298      6.03e-03  
    4   -1022.2901470589      1.12e-03  
    5   -1022.3052706072      4.40e-04  
    6   -1022.3075920263      1.21e-04  
    7   -1022.3077574802      4.43e-05  
    8   -1022.3077795925      1.59e-05  
    9   -1022.3077825547      3.25e-06  Convergence criterion met
 ---------------------------------------
 SCF time:   CPU 83.19s  wall 83.00s 
 SCF   energy in the final basis set =    -1022.3077825547
 Total energy in the final basis set =    -1022.3077825547
 
 --------------------------------------------------------------
 
                    Orbital Energies (a.u.)
 --------------------------------------------------------------
 
 Alpha MOs
 -- Occupied --
-88.8972 -10.2146 -10.2133 -10.1995 -10.1963 -10.1912 -10.1850 -10.1837
-10.1823 -10.1801 -10.1760 -10.1739 -10.1722 -10.1715 -10.1705 -10.1699
-10.1665  -7.9593  -5.9233  -5.9197  -5.9160  -0.8879  -0.8167  -0.8053
 -0.7913  -0.7727  -0.7568  -0.7266  -0.7099  -0.6828  -0.6449  -0.6217
 -0.6123  -0.5862  -0.5751  -0.5477  -0.5349  -0.5202  -0.4945  -0.4696
 -0.4654  -0.4589  -0.4537  -0.4401  -0.4251  -0.4241  -0.4170  -0.4083
 -0.3971  -0.3946  -0.3844  -0.3804  -0.3707  -0.3636  -0.3562  -0.3517
 -0.3482  -0.3387  -0.3304  -0.3288  -0.3227  -0.3122  -0.3069  -0.3041
 -0.3017  -0.2683  -0.2423  -0.1986
 -- Virtual --
 -0.0464   0.0080   0.0305   0.0665   0.0867   0.0947   0.0966   0.1051
  0.1108   0.1165   0.1249   0.1301   0.1335   0.1416   0.1475   0.1551
  0.1581   0.1679   0.1743   0.1750   0.1796   0.1850   0.1876   0.1989
  0.2036   0.2055   0.2086   0.2215   0.2274   0.2394   0.2428   0.2530
  0.2566   0.2620   0.2750   0.2766   0.2835   0.2867   0.2929   0.3068
  0.3198   0.3385   0.3518   0.3625   0.3674   0.3929   0.4408   0.4721
  0.4803   0.4975   0.4999   0.5052   0.5144   0.5265   0.5350   0.5428
  0.5464   0.5533   0.5581   0.5702   0.5740   0.5809   0.5884   0.5976
  0.6019   0.6128   0.6241   0.6291   0.6399   0.6496   0.6626   0.6665
  0.6726   0.6888   0.6940   0.6968   0.7023   0.7068   0.7153   0.7322
  0.7474   0.7796   0.7870   0.8043   0.8203   0.8221   0.8266   0.8376
  0.8510   0.8575   0.8611   0.8665   0.8724   0.8761   0.8787   0.8856
  0.8878   0.8985   0.9030   0.9087   0.9228   0.9296   0.9355   0.9459
  0.9488   0.9518   0.9586   0.9595   0.9777   0.9841   0.9861   0.9901
  1.0002   1.0067   1.0183   1.0263   1.0369   1.0426   1.0661   1.0745
  1.0788   1.1112   1.1198   1.1288   1.1448   1.1780   1.1894   1.2246
  1.2420   1.2519   1.2950   1.3123   1.3299   1.3389   1.3549   1.3790
  1.4203   1.4271   1.4393   1.4512   1.4623   1.4802   1.4880   1.5135
  1.5473   1.5733   1.5882   1.6092   1.6277   1.6588   1.6973   1.7153
  1.7240   1.7488   1.7564   1.7788   1.7862   1.8119   1.8366   1.8474
  1.8600   1.8859   1.8930   1.9088   1.9128   1.9294   1.9577   1.9620
  1.9720   1.9941   1.9953   1.9977   2.0171   2.0217   2.0337   2.0418
  2.0506   2.0763   2.0958   2.0979   2.1305   2.1494   2.1741   2.1844
  2.2118   2.2363   2.2436   2.2473   2.2680   2.3016   2.3296   2.3381
  2.3453   2.3531   2.3692   2.3793   2.3915   2.4133   2.4174   2.4324
  2.4612   2.4629   2.4940   2.4983   2.5167   2.5447   2.5649   2.5908
  2.6124   2.6513   2.6961   2.7099   2.7363   2.7500   2.7761   2.8020
  2.8644   2.8845   2.9281   3.0027   3.1014   3.2050   3.9701   4.0983
  4.1192   4.1298   4.1499   4.1818   4.2029   4.2407   4.2727   4.3497
  4.3571   4.4332   4.4802   4.5189   4.5313   4.5856   4.6568
 --------------------------------------------------------------
 
          Ground-State Mulliken Net Atomic Charges

     Atom                 Charge (a.u.)
  ----------------------------------------
      1 C                    -0.374903
      2 C                    -0.053868
      3 C                    -0.136748
      4 C                    -0.173840
      5 C                     0.179953
      6 C                    -0.350223
      7 C                    -0.258318
      8 C                    -0.256249
      9 C                    -0.261986
     10 C                    -0.261413
     11 C                    -0.247036
     12 C                    -0.258827
     13 C                    -0.440966
     14 C                    -0.209376
     15 C                    -0.106720
     16 C                    -0.334851
     17 S                     0.230009
     18 H                     0.145903
     19 H                     0.155876
     20 H                     0.136537
     21 H                     0.132680
     22 H                     0.152832
     23 H                     0.140943
     24 H                     0.132553
     25 H                     0.147480
     26 H                     0.124343
     27 H                     0.129282
     28 H                     0.138516
     29 H                     0.126998
     30 H                     0.125079
     31 H                     0.140632
     32 H                     0.125535
     33 H                     0.125257
     34 H                     0.135141
     35 H                     0.133869
     36 H                     0.141435
     37 H                     0.139487
     38 H                     0.141914
     39 H                     0.143312
     40 H                     0.153475
     41 H                     0.146285
  ----------------------------------------
  Sum of atomic charges =     0.000000

 -----------------------------------------------------------------
                    Cartesian Multipole Moments
 -----------------------------------------------------------------
    Charge (ESU x 10^10)
                -0.0000
    Dipole Moment (Debye)
         X      -0.5662      Y       0.8153      Z      -0.2497
       Tot       1.0235
    Quadrupole Moments (Debye-Ang)
        XX    -111.5478     XY       3.6731     YY    -109.4965
        XZ       0.9325     YZ      -2.9660     ZZ    -114.4473
    Octopole Moments (Debye-Ang^2)
       XXX      43.0714    XXY      19.5354    XYY       3.9880
       YYY      -0.5050    XXZ       4.9297    XYZ      -8.8916
       YYZ       2.9966    XZZ     -11.5824    YZZ       0.0754
       ZZZ      -0.8441
    Hexadecapole Moments (Debye-Ang^3)
      XXXX   -7554.2636   XXXY      11.1510   XXYY   -1559.3187
      XYYY      22.5801   YYYY   -1659.7097   XXXZ      60.1399
      XXYZ     -32.8563   XYYZ      -1.5815   YYYZ     -20.7320
      XXZZ   -1405.7095   XYZZ       1.0213   YYZZ    -338.1480
      XZZZ      -3.0751   YZZZ      -4.0700   ZZZZ    -377.3748
 -----------------------------------------------------------------
Archival summary:
1\1\nia0005.scinet.local\SP\ProcedureUnspecified\6-31G*\11624\rhickman\MonFeb708:38:442022MonFeb708:38:442022\0\\#,ProcedureUnspecified,6-31G*,\\0,1\S\C,1,1.73711\C,2,1.36923,1,110.308\H,3,1.07657,2,122.579,1,179.595,0\C,3,1.41091,2,114.554,1,-0.726261,0\C,5,1.37486,3,112.205,2,-0.125327,0\C,2,1.43668,1,122.442,3,-179.96,0\H,7,1.08305,2,114.506,1,179.677,0\C,7,1.32995,2,125.064,1,-0.377917,0\H,9,1.07545,7,121.802,2,-179.934,0\H,9,1.07766,7,121.309,2,0.062237,0\C,6,1.44652,5,131.95,3,-179.416,0\H,12,1.08388,6,114.173,5,-146.901,0\C,12,1.32874,6,126.685,5,36.4725,0\H,14,1.07612,12,122.792,6,0.91711,0\H,14,1.07658,12,120.939,6,179.151,0\C,5,1.49677,3,121.753,2,174.157,0\H,17,1.0859,5,109.887,3,170.533,0\H,17,1.09288,5,109.677,3,51.0965,0\C,17,1.53342,5,110.098,3,-69.3622,0\H,20,1.09143,17,108.837,5,-56.4525,0\H,20,1.09255,17,109.224,5,60.3097,0\C,20,1.52919,17,113.087,5,-178.707,0\H,23,1.09303,20,108.144,17,-179.55,0\H,23,1.09327,20,108.905,17,-63.0116,0\C,23,1.53039,20,114.796,17,58.7612,0\H,26,1.09019,23,109.458,20,-65.2726,0\H,26,1.09324,23,108.106,20,178.248,0\C,26,1.52733,23,113.267,20,57.6373,0\H,29,1.0916,26,109.871,23,-64.457,0\H,29,1.09306,26,108.618,23,53.2465,0\C,29,1.52893,26,113.055,23,174.203,0\H,32,1.09273,29,109.56,26,-53.1592,0\H,32,1.09307,29,108.576,26,-170.312,0\C,32,1.52753,29,113.145,26,69.204,0\H,35,1.09133,32,109.814,29,-64.8405,0\H,35,1.0927,32,109.051,29,53.0785,0\C,35,1.52384,32,111.663,29,174.141,0\H,38,1.08772,35,110.685,32,179.727,0\H,38,1.088,35,110.5,32,59.6756,0\H,38,1.08804,35,110.57,32,-60.1609,0\\\@

 Total job time:  83.88s(wall), 83.50s(cpu) 
 Mon Feb  7 08:38:44 2022

        *************************************************************
        *                                                           *
        *  Thank you very much for using Q-Chem.  Have a nice day.  *
        *                                                           *
        *************************************************************


