38
 energy: -52.543126326029 gnorm: 0.000024231070 xtb: 6.4.1 (23d549d)
C         5.04428326960000   -1.83962959500000   -1.09797078610000
C         4.40316476430000   -0.69358920640000   -0.90057596970000
C         3.06904998380000   -0.52231044150000   -0.34185860960000
C         2.28175329820000   -1.58365270300000    0.10015635850000
C         1.02427695980000   -1.37024266650000    0.62991033760000
C         0.50644373050000   -0.08508137910000    0.74185716540000
O        -0.71458119910000    0.23671490770000    1.25371583530000
C        -1.63127032160000   -0.75257767040000    1.65695048500000
C        -2.66786412090000   -1.18429537420000    0.58416566020000
C        -2.13113212070000   -1.23794750540000   -0.85576661880000
C        -2.03976331510000    0.14438224120000   -1.50418618590000
C        -3.36450183550000    0.87924144540000   -1.32406269680000
C        -3.70793629150000    0.90043612520000    0.16269943100000
O        -3.84660449580000   -0.41025686870000    0.67584977310000
C         1.27925074810000    1.00705273610000    0.29064997040000
C         0.73531434390000    2.35780055440000    0.40097378920000
C         1.08641649860000    3.39479613400000   -0.34823063210000
C         2.53964919430000    0.76240414800000   -0.23331693350000
H         6.03456175830000   -1.86075401210000   -1.51947218840000
H         4.61822805070000   -2.79730979750000   -0.85306142570000
H         4.89473266330000    0.23255023350000   -1.17386579410000
H         2.64953388530000   -2.59556459120000    0.03513803630000
H         0.45384813720000   -2.22755770420000    0.95430679960000
H        -2.19510142810000   -0.30599035650000    2.48369857790000
H        -1.11528845640000   -1.63575606590000    2.04298351740000
H        -3.00141143640000   -2.18938339120000    0.87357296320000
H        -2.82695795100000   -1.84696797490000   -1.43833829570000
H        -1.15796713550000   -1.72973665870000   -0.86847919680000
H        -1.80577529220000    0.02933995270000   -2.56474221940000
H        -1.24175956910000    0.73132228170000   -1.04962584870000
H        -4.15705983320000    0.35760728100000   -1.86489444900000
H        -3.29480209810000    1.89951990140000   -1.70219238240000
H        -4.67332801870000    1.37909888870000    0.34142165290000
H        -2.92984000530000    1.44610878380000    0.71344153740000
H        -0.03496433380000    2.47500943490000    1.15115624250000
H         1.81899283500000    3.31915030300000   -1.13420408380000
H         0.64008300420000    4.36449294280000   -0.20911061160000
H         3.13727105270000    1.60288135090000   -0.55388176900000
