
Running Job 1 of 1 fragments/A006/conf-2/spe_input.inp
qchem fragments/A006/conf-2/spe_input.inp_134763.0 /gpfs/fs0/scratch/a/aspuru/rhickman/descriptor_computation/qchem134763/ 0
/scinet/niagara/software/commercial/qc52/exe/qcprog.exe_s fragments/A006/conf-2/spe_input.inp_134763.0 /gpfs/fs0/scratch/a/aspuru/rhickman/descriptor_computation/qchem134763/
                  Welcome to Q-Chem
     A Quantum Leap Into The Future Of Chemistry


 Q-Chem 5.2, Q-Chem, Inc., Pleasanton, CA (2019)

 License issued to: SRG Alan Aspuru-Guzik, University of Toronto

 Yihan Shao,  Zhengting Gan,  E. Epifanovsky,  A. T. B. Gilbert,  M. Wormit,  
 J. Kussmann,  A. W. Lange,  A. Behn,  Jia Deng,  Xintian Feng,  D. Ghosh,  
 M. Goldey,  P. R. Horn,  L. D. Jacobson,  I. Kaliman,  T. Kus,  A. Landau,  
 Jie Liu,  E. I. Proynov,  R. M. Richard,  R. P. Steele,  E. J. Sundstrom,  
 H. L. Woodcock III,  P. M. Zimmerman,  D. Zuev,  B. Albrecht,  E. Alguire,  
 S. A. Baeppler,  D. Barton,  Z. Benda,  Y. A. Bernard,  E. J. Berquist,  
 K. B. Bravaya,  H. Burton,  D. Casanova,  Chun-Min Chang,  Yunqing Chen,  
 A. Chien,  K. D. Closser,  M. P. Coons,  S. Coriani,  S. Dasgupta,  
 A. L. Dempwolff,  M. Diedenhofen,  Hainam Do,  R. G. Edgar,  Po-Tung Fang,  
 S. Faraji,  S. Fatehi,  Qingguo Feng,  K. D. Fenk,  J. Fosso-Tande,  
 J. Gayvert,  Qinghui Ge,  A. Ghysels,  G. Gidofalvi,  J. Gomes,  
 J. Gonthier,  A. Gunina,  D. Hait,  M. W. D. Hanson-Heine,  
 P. H. P. Harbach,  A. W. Hauser,  M. F. Herbst,  J. E. Herr,  
 E. G. Hohenstein,  Z. C. Holden,  Kerwin Hui,  B. C. Huynh,  T.-C. Jagau,  
 Hyunjun Ji,  B. Kaduk,  K. Khistyaev,  Jaehoon Kim,  P. Klunzinger,  K. Koh,  
 D. Kosenkov,  L. Koulias,  T. Kowalczyk,  C. M. Krauter,  A. Kunitsa,  
 Ka Un Lao,  A. Laurent,  K. V. Lawler,  Joonho Lee,  D. Lefrancois,  
 S. Lehtola,  D. S. Levine,  Yi-Pei Li,  You-Sheng Lin,  Fenglai Liu,  
 E. Livshits,  A. Luenser,  P. Manohar,  E. Mansoor,  S. F. Manzer,  
 Shan-Ping Mao,  Yuezhi Mao,  N. Mardirossian,  A. V. Marenich,  
 T. Markovich,  L. A. Martinez-Martinez,  S. A. Maurer,  N. J. Mayhall,  
 S. C. McKenzie,  J.-M. Mewes,  P. Morgante,  A. F. Morrison,  
 J. W. Mullinax,  K. Nanda,  T. S. Nguyen-Beck,  R. Olivares-Amaya,  
 J. A. Parkhill,  Zheng Pei,  T. M. Perrine,  F. Plasser,  P. Pokhilko,  
 S. Prager,  A. Prociuk,  E. Ramos,  D. R. Rehn,  F. Rob,  M. Scheurer,  
 M. Schneider,  N. Sergueev,  S. M. Sharada,  S. Sharma,  D. W. Small,  
 T. Stauch,  T. Stein,  Yu-Chuan Su,  A. J. W. Thom,  A. Tkatchenko,  
 T. Tsuchimochi,  N. M. Tubman,  L. Vogt,  M. L. Vidal,  O. Vydrov,  
 M. A. Watson,  J. Wenzel,  M. de Wergifosse,  T. A. Wesolowski,  A. White,  
 J. Witte,  A. Yamada,  Jun Yang,  K. Yao,  S. Yeganeh,  S. R. Yost,  
 Zhi-Qiang You,  A. Zech,  Igor Ying Zhang,  Xing Zhang,  Yan Zhao,  
 Ying Zhu,  B. R. Brooks,  G. K. L. Chan,  C. J. Cramer,  M. S. Gordon,  
 W. J. Hehre,  A. Klamt,  M. W. Schmidt,  C. D. Sherrill,  D. G. Truhlar,  
 A. Aspuru-Guzik,  R. Baer,  A. T. Bell,  N. A. Besley,  Jeng-Da Chai,  
 A. E. DePrince, III,  R. A. DiStasio Jr.,  A. Dreuw,  B. D. Dunietz,  
 T. R. Furlani,  Chao-Ping Hsu,  Yousung Jung,  Jing Kong,  D. S. Lambrecht,  
 WanZhen Liang,  C. Ochsenfeld,  V. A. Rassolov,  L. V. Slipchenko,  
 J. E. Subotnik,  T. Van Voorhis,  J. M. Herbert,  A. I. Krylov,  
 P. M. W. Gill,  M. Head-Gordon

 Contributors to earlier versions of Q-Chem not listed above: 
 R. D. Adamson,  B. Austin,  J. Baker,  G. J. O. Beran,  K. Brandhorst,  
 S. T. Brown,  E. F. C. Byrd,  A. K. Chakraborty,  C.-L. Cheng,  
 Siu Hung Chien,  D. M. Chipman,  D. L. Crittenden,  H. Dachsel,  
 R. J. Doerksen,  A. D. Dutoi,  L. Fusti-Molnar,  W. A. Goddard III,  
 A. Golubeva-Zadorozhnaya,  S. R. Gwaltney,  G. Hawkins,  A. Heyden,  
 S. Hirata,  G. Kedziora,  F. J. Keil,  C. Kelley,  Jihan Kim,  R. A. King,  
 R. Z. Khaliullin,  P. P. Korambath,  W. Kurlancheek,  A. M. Lee,  M. S. Lee,  
 S. V. Levchenko,  Ching Yeh Lin,  D. Liotard,  R. C. Lochan,  I. Lotan,  
 P. E. Maslen,  N. Nair,  D. P. O'Neill,  D. Neuhauser,  E. Neuscamman,  
 C. M. Oana,  R. Olson,  B. Peters,  R. Peverati,  P. A. Pieniazek,  
 Y. M. Rhee,  J. Ritchie,  M. A. Rohrdanz,  E. Rosta,  N. J. Russ,  
 H. F. Schaefer III,  N. E. Schultz,  N. Shenvi,  A. C. Simmonett,  A. Sodt,  
 D. Stuck,  K. S. Thanthiriwatte,  V. Vanovschi,  Tao Wang,  A. Warshel,  
 C. F. Williams,  Q. Wu,  X. Xu,  W. Zhang

 Please cite Q-Chem as follows:
 Y. Shao et al., Mol. Phys. 113, 184-215 (2015)
 DOI: 10.1080/00268976.2014.952696

 Q-Chem 5.2.1 for Intel X86 EM64T Linux

 Parts of Q-Chem use Armadillo 8.300.2 (Tropical Shenanigans).
 http://arma.sourceforge.net/

 Q-Chem begins on Mon Feb  7 16:43:22 2022  

Host: 
0

     Scratch files written to /gpfs/fs0/scratch/a/aspuru/rhickman/descriptor_computation/qchem134763//
 Jul1719 |scratch|qcdevops|jenkins|workspace|build_RNUM -1
Processing $rem in /scinet/niagara/software/commercial/qc52/config/preferences:
	 MEM_TOTAL  4000 
NAlpha2: 198
NElect   198
Mult     1

Checking the input file for inconsistencies... 	...done.

--------------------------------------------------------------
User input:
--------------------------------------------------------------
$molecule
0 1
F         2.95436071140000    5.83820255230000   -0.16386399270000
C         3.31729480490000    4.55491153030000   -0.11608932480000
F         4.64352506970000    4.48892541850000   -0.08411897740000
C         2.44171352710000    3.56049561080000   -0.10312053800000
C         2.68438577780000    2.12870113890000   -0.05129194090000
C         3.97535595760000    1.57485715730000   -0.02321585950000
C         4.16955170900000    0.21138105900000    0.00616615150000
C         1.56809443320000    1.29281930930000   -0.03357859160000
C         1.76266080850000   -0.07562702350000    0.02159711120000
C         3.06466080600000   -0.63066740800000    0.02464095370000
C         2.90071883800000   -2.05492751210000    0.03608925510000
C         3.79295789210000   -3.11987536180000    0.05928017180000
C         3.28813940040000   -4.40370460110000    0.08919089070000
C         1.91358622070000   -4.63330117470000    0.11112306570000
C         1.00662850210000   -3.59151573730000    0.08814024660000
C         1.50725211990000   -2.29845398450000    0.03398513440000
N         0.83242089390000   -1.09404321700000    0.02600012400000
C        -0.56053581320000   -0.93310915090000    0.02241568740000
C        -1.34357559950000   -1.61330176360000   -0.90577372160000
C        -2.71509356100000   -1.45898465490000   -0.90039990880000
C        -3.33748594640000   -0.61335699520000    0.01592764720000
C        -4.79772682590000   -0.44693713100000    0.01387039440000
C        -5.63659313850000   -1.54410866930000   -0.16818891200000
C        -7.01001693580000   -1.38766383010000   -0.16629019800000
C        -7.56796274340000   -0.13272837540000    0.01148979020000
C        -6.74343154860000    0.96540407870000    0.19031699330000
C        -5.36984278470000    0.81028645780000    0.19458606600000
C        -2.54350163030000    0.06972752910000    0.93517487550000
C        -1.17279992000000   -0.09171894600000    0.94694055880000
H         1.40657134110000    3.87020010290000   -0.13471052260000
H         4.83419132120000    2.22439324780000   -0.03418385350000
H         5.16762575650000   -0.19906111980000    0.01136338220000
H         0.57342521140000    1.71102926770000   -0.07395995690000
H         4.85734832830000   -2.94042457610000    0.05828859920000
H         3.96346458700000   -5.24600052180000    0.10530551590000
H         1.54907623800000   -5.64915629430000    0.15061129160000
H        -0.05584773560000   -3.77926081560000    0.12317089870000
H        -0.86872949790000   -2.24880502230000   -1.63839141890000
H        -3.31161961920000   -1.97866581240000   -1.63555961550000
H        -5.20756026990000   -2.52818556150000   -0.28978646750000
H        -7.64848257450000   -2.24851381650000   -0.30188031170000
H        -8.64096196430000   -0.01106043010000    0.01079594620000
H        -7.17312961130000    1.94737037420000    0.32512654600000
H        -4.73168715380000    1.67342462360000    0.31714703310000
H        -3.00982195080000    0.71141165610000    1.66813071350000
H        -0.56971609460000    0.41834492630000    1.68341653050000
$end

$rem
BASIS = 6-31G*
GUI = 2
METHOD = B3LYP
PRINT_ORBITALS false
MOLDEN_FORMAT false
--------------------------------------------------------------
 ----------------------------------------------------------------
             Standard Nuclear Orientation (Angstroms)
    I     Atom           X                Y                Z
 ----------------------------------------------------------------
    1      F      -4.2853151056    -5.0560165370    -0.1691429766
    2      C      -4.3462764552    -3.7239153409    -0.1178639413
    3      F      -5.6225367501    -3.3576415925    -0.0822804317
    4      C      -3.2671654019    -2.9551285242    -0.1052168266
    5      C      -3.1771899003    -1.5058333941    -0.0499043554
    6      C      -4.3079930176    -0.6725512425    -0.0173376059
    7      C      -4.1864255526     0.6992361925     0.0152652767
    8      C      -1.8998014590    -0.9462559526    -0.0334599395
    9      C      -1.7774084103     0.4303900906     0.0249473510
   10      C      -2.9187314535     1.2674131212     0.0325133360
   11      C      -2.4346343122     2.6168511587     0.0463631497
   12      C      -3.0607728783     3.8569834861     0.0740141449
   13      C      -2.2767129124     4.9919875732     0.1051520416
   14      C      -0.8859541429     4.9023805252     0.1239316267
   15      C      -0.2402071602     3.6814482833     0.0964961394
   16      C      -1.0223366868     2.5365603214     0.0410846088
   17      N      -0.6396267263     1.2101170832     0.0289329498
   18      C       0.6800364210     0.7361202400     0.0213712055
   19      C       1.5954803797     1.2224109730    -0.9075166014
   20      C       2.8957946475     0.7597179620    -0.9060506985
   21      C       3.3111185557    -0.2077730743     0.0069562873
   22      C       4.6950503017    -0.7024420918     0.0007341502
   23      C       5.7614088822     0.1752561525    -0.1813450516
   24      C       7.0630868745    -0.2899339700    -0.1833634634
   25      C       7.3208661698    -1.6394187300    -0.0095447029
   26      C       6.2682400935    -2.5213098480     0.1692628645
   27      C       4.9661121108    -2.0573900994     0.1774468236
   28      C       2.3843402591    -0.6943639514     0.9269249475
   29      C       1.0864808809    -0.2249583988     0.9426104807
   30      H      -2.3298568820    -3.4924061374    -0.1401403124
   31      H      -5.2922317812    -1.1093459046    -0.0273421428
   32      H      -5.0647483973     1.3262258531     0.0238991344
   33      H      -1.0266374028    -1.5799443981    -0.0772842469
   34      H      -4.1380570894     3.9247123959     0.0754604010
   35      H      -2.7423752997     5.9659290790     0.1247145342
   36      H      -0.2995369418     5.8083931974     0.1644825269
   37      H       0.8371742005     3.6221453565     0.1291102965
   38      H       1.2763440543     1.9512271583    -1.6376199341
   39      H       3.5934710694     1.1317146304    -1.6417393058
   40      H       5.5675704547     1.2314964986    -0.2998587346
   41      H       7.8805785166     0.4031881539    -0.3189174609
   42      H       8.3379354209    -2.0023056982    -0.0132977180
   43      H       6.4632348045    -3.5756800995     0.3009909232
   44      H       4.1483736775    -2.7527778372     0.2999663814
   45      H       2.6937677065    -1.4272572480     1.6573765141
   46      H       0.3846126733    -0.5861001861     1.6796516870
 ----------------------------------------------------------------
 Molecular Point Group                 C1    NOp =  1
 Largest Abelian Subgroup              C1    NOp =  1
 Nuclear Repulsion Energy =        2399.52325327 hartrees
 There are       99 alpha and       99 beta electrons
 Requested basis set is 6-31G(d)
 There are 150 shells and 469 basis functions

 Total QAlloc Memory Limit   4000 MB
 Mega-Array Size       188 MB
 MEM_STATIC part       192 MB
 A cutoff of  1.0D-08 yielded   4553 shell pairs
 There are     47771 function pairs
 Smallest overlap matrix eigenvalue = 2.52E-04

 Scale SEOQF with 1.000000e-02/1.000000e-02/1.000000e-01

 Standard Electronic Orientation quadrupole field applied
 Nucleus-field energy     =     0.0000000164 hartrees
 Guess from superposition of atomic densities
 Warning:  Energy on first SCF cycle will be non-variational
 SAD guess density has 198.000000 electrons

 -----------------------------------------------------------------------
  General SCF calculation program by
  Eric Jon Sundstrom, Paul Horn, Yuezhi Mao, Dmitri Zuev, Alec White,
  David Stuck, Shaama M.S., Shane Yost, Joonho Lee, David Small,
  Daniel Levine, Susi Lehtola, Hugh Burton, Evgeny Epifanovsky,
  Bang C. Huynh
 -----------------------------------------------------------------------
 Exchange:     0.2000 Hartree-Fock + 0.0800 Slater + 0.7200 B88
 Correlation:  0.1900 VWN1RPA + 0.8100 LYP
 Using SG-1 standard quadrature grid
 A restricted SCF calculation will be
 performed using DIIS
 SCF converges when DIIS error is below 1.0e-05
 ---------------------------------------
  Cycle       Energy         DIIS error
 ---------------------------------------
    1   -1263.2091135123      3.86e-02  
    2   -1255.0401008143      3.68e-03  
    3   -1254.8100512740      4.73e-03  
    4   -1255.4012675029      1.20e-03  
    5   -1255.4384812915      4.00e-04  
    6   -1255.4419666069      2.13e-04  
    7   -1255.4432666461      4.82e-05  
    8   -1255.4433250570      2.02e-05  
    9   -1255.4433369224      4.51e-06  Convergence criterion met
 ---------------------------------------
 SCF time:   CPU 161.20s  wall 161.00s 
 SCF   energy in the final basis set =    -1255.4433369224
 Total energy in the final basis set =    -1255.4433369224
 
 --------------------------------------------------------------
 
                    Orbital Energies (a.u.)
 --------------------------------------------------------------
 
 Alpha MOs
 -- Occupied --
-24.7404 -24.7295 -14.3843 -10.3520 -10.2382 -10.2231 -10.2218 -10.2035
-10.2031 -10.1997 -10.1995 -10.1992 -10.1991 -10.1981 -10.1981 -10.1915
-10.1914 -10.1907 -10.1907 -10.1902 -10.1880 -10.1872 -10.1855 -10.1854
-10.1852 -10.1847 -10.1841 -10.1788 -10.1782  -1.2808  -1.2197  -1.0040
 -0.8845  -0.8661  -0.8567  -0.8461  -0.8120  -0.7882  -0.7679  -0.7653
 -0.7542  -0.7504  -0.7441  -0.7167  -0.7117  -0.6570  -0.6419  -0.6352
 -0.6195  -0.6128  -0.6010  -0.5973  -0.5803  -0.5794  -0.5661  -0.5500
 -0.5337  -0.5291  -0.5145  -0.5080  -0.4884  -0.4838  -0.4796  -0.4671
 -0.4574  -0.4525  -0.4518  -0.4479  -0.4403  -0.4381  -0.4367  -0.4363
 -0.4322  -0.4264  -0.4234  -0.4209  -0.4136  -0.4032  -0.3898  -0.3849
 -0.3722  -0.3711  -0.3644  -0.3624  -0.3607  -0.3465  -0.3456  -0.3406
 -0.3368  -0.3309  -0.3036  -0.2798  -0.2659  -0.2567  -0.2552  -0.2541
 -0.2369  -0.2008  -0.1982
 -- Virtual --
 -0.0370  -0.0333  -0.0135  -0.0036   0.0043   0.0125   0.0220   0.0424
  0.0848   0.0904   0.0941   0.0998   0.1060   0.1200   0.1241   0.1323
  0.1491   0.1511   0.1527   0.1548   0.1655   0.1684   0.1694   0.1719
  0.1753   0.1842   0.1881   0.1923   0.1969   0.2067   0.2113   0.2146
  0.2178   0.2330   0.2557   0.2666   0.2708   0.2790   0.2829   0.2978
  0.3015   0.3051   0.3151   0.3246   0.3305   0.3432   0.3531   0.3551
  0.3698   0.3751   0.3786   0.3901   0.4250   0.4441   0.4481   0.4594
  0.4710   0.4911   0.4959   0.5025   0.5046   0.5187   0.5246   0.5291
  0.5303   0.5369   0.5387   0.5412   0.5436   0.5510   0.5537   0.5552
  0.5638   0.5644   0.5689   0.5712   0.5768   0.5784   0.5843   0.5852
  0.5856   0.5903   0.5959   0.6002   0.6008   0.6042   0.6076   0.6114
  0.6133   0.6143   0.6184   0.6213   0.6230   0.6293   0.6347   0.6371
  0.6430   0.6453   0.6553   0.6595   0.6611   0.6706   0.6731   0.6864
  0.7032   0.7099   0.7274   0.7380   0.7554   0.7650   0.7842   0.7915
  0.7952   0.8062   0.8127   0.8196   0.8200   0.8313   0.8338   0.8386
  0.8398   0.8434   0.8458   0.8516   0.8545   0.8586   0.8604   0.8682
  0.8739   0.8839   0.8941   0.9053   0.9136   0.9171   0.9200   0.9375
  0.9400   0.9514   0.9539   0.9636   0.9691   0.9858   0.9872   1.0015
  1.0039   1.0123   1.0157   1.0189   1.0398   1.0438   1.0624   1.0762
  1.0873   1.0954   1.1187   1.1223   1.1269   1.1326   1.1547   1.1576
  1.1630   1.1651   1.1726   1.1771   1.1820   1.2048   1.2095   1.2116
  1.2161   1.2216   1.2296   1.2466   1.2604   1.2671   1.2699   1.2841
  1.2897   1.3242   1.3340   1.3418   1.3541   1.3690   1.3801   1.3937
  1.4012   1.4078   1.4162   1.4268   1.4369   1.4456   1.4527   1.4598
  1.4667   1.4680   1.4728   1.4794   1.4813   1.4830   1.4911   1.4928
  1.4961   1.5003   1.5052   1.5080   1.5099   1.5221   1.5574   1.6046
  1.6172   1.6391   1.6493   1.6588   1.6798   1.7200   1.7397   1.7485
  1.7648   1.7783   1.7820   1.7868   1.7893   1.7949   1.8032   1.8223
  1.8305   1.8329   1.8393   1.8408   1.8438   1.8615   1.8708   1.8866
  1.8878   1.9000   1.9052   1.9168   1.9271   1.9320   1.9335   1.9392
  1.9531   1.9694   1.9730   1.9792   1.9859   2.0019   2.0040   2.0128
  2.0260   2.0286   2.0382   2.0530   2.0714   2.0790   2.0861   2.0950
  2.1077   2.1150   2.1223   2.1250   2.1309   2.1434   2.1557   2.1579
  2.1653   2.1658   2.1806   2.2016   2.2195   2.2223   2.2379   2.2460
  2.2504   2.2612   2.2721   2.2749   2.2819   2.3046   2.3115   2.3132
  2.3159   2.3184   2.3284   2.3443   2.3478   2.3761   2.3839   2.4003
  2.4133   2.4182   2.4794   2.5026   2.5128   2.5250   2.5391   2.5670
  2.5677   2.5840   2.5922   2.6100   2.6292   2.6352   2.6380   2.6509
  2.6601   2.6719   2.6770   2.6842   2.7008   2.7086   2.7288   2.7326
  2.7422   2.7570   2.7613   2.7643   2.7661   2.7781   2.8080   2.8269
  2.8444   2.8581   2.8616   2.8976   2.9110   2.9386   2.9486   2.9921
  3.0000   3.0043   3.0528   3.1422   3.1585   3.2162   3.2398   3.3274
  3.3778   3.3954   3.4385   3.5103   3.5721   4.0814   4.0960   4.0994
  4.1079   4.1125   4.1169   4.1226   4.1288   4.1397   4.1520   4.1635
  4.1929   4.2013   4.2631   4.3309   4.3343   4.3397   4.3539   4.3721
  4.4304   4.4630   4.5139   4.5299   4.6837   4.7413   4.7890   4.8228
  4.8882   5.3123
 --------------------------------------------------------------
 
          Ground-State Mulliken Net Atomic Charges

     Atom                 Charge (a.u.)
  ----------------------------------------
      1 F                    -0.251795
      2 C                     0.536599
      3 F                    -0.234906
      4 C                    -0.295635
      5 C                     0.199570
      6 C                    -0.219296
      7 C                    -0.195465
      8 C                    -0.258102
      9 C                     0.316745
     10 C                     0.066514
     11 C                     0.058934
     12 C                    -0.194146
     13 C                    -0.145423
     14 C                    -0.138423
     15 C                    -0.177959
     16 C                     0.314594
     17 N                    -0.738808
     18 C                     0.284918
     19 C                    -0.161849
     20 C                    -0.188077
     21 C                     0.098235
     22 C                     0.085609
     23 C                    -0.170223
     24 C                    -0.132633
     25 C                    -0.123758
     26 C                    -0.132699
     27 C                    -0.169987
     28 C                    -0.188136
     29 C                    -0.162690
     30 H                     0.156258
     31 H                     0.132999
     32 H                     0.132289
     33 H                     0.138846
     34 H                     0.129435
     35 H                     0.122422
     36 H                     0.125421
     37 H                     0.138776
     38 H                     0.153496
     39 H                     0.140377
     40 H                     0.131379
     41 H                     0.131056
     42 H                     0.130171
     43 H                     0.131107
     44 H                     0.130911
     45 H                     0.140247
     46 H                     0.153100
  ----------------------------------------
  Sum of atomic charges =     0.000000

 -----------------------------------------------------------------
                    Cartesian Multipole Moments
 -----------------------------------------------------------------
    Charge (ESU x 10^10)
                 0.0000
    Dipole Moment (Debye)
         X       2.7231      Y       0.4157      Z       0.0100
       Tot       2.7546
    Quadrupole Moments (Debye-Ang)
        XX    -151.9157     XY      -6.9026     YY    -156.7383
        XZ      -1.5403     YZ      -3.8183     ZZ    -166.7817
    Octopole Moments (Debye-Ang^2)
       XXX      31.2639    XXY      13.0428    XYY      20.7893
       YYY     -19.8104    XXZ      -8.5486    XYZ     -11.3235
       YYZ       2.3463    XZZ     -27.4673    YZZ     -29.5595
       ZZZ      -2.5661
    Hexadecapole Moments (Debye-Ang^3)
      XXXX  -13121.4124   XXXY     -57.3707   XXYY   -3300.9684
      XYYY      37.1368   YYYY   -5940.0089   XXXZ     -55.0313
      XXYZ     -46.6465   XYYZ       6.7126   YYYZ       0.1491
      XXZZ   -2565.7648   XYZZ     154.6632   YYZZ   -1121.6154
      XZZZ       7.0588   YZZZ      -5.6833   ZZZZ    -324.4850
 -----------------------------------------------------------------
Archival summary:
1\1\nia1977.scinet.local\SP\ProcedureUnspecified\6-31G*\212617\rhickman\MonFeb716:46:042022MonFeb716:46:042022\0\\#,ProcedureUnspecified,6-31G*,\\0,1\N\C,1,1.37932\C,1,1.3806,2,108.33\C,2,1.38331,1,129.47,3,177.478,0\H,4,1.07977,2,120.945,1,0.517353,0\C,3,1.38765,1,129.554,2,177.456,0\H,6,1.07951,3,121.226,1,0.598862,0\C,6,1.38145,3,117.808,1,-178.684,0\H,8,1.07999,6,119.233,3,-179.842,0\C,8,1.39377,6,121.533,3,0.382846,0\H,10,1.07972,8,119.216,6,-179.812,0\C,10,1.37984,8,120.959,6,0.764363,0\H,12,1.07941,10,121.028,8,179.008,0\C,12,1.38951,10,118.589,8,-0.718695,0\C,4,1.39468,2,118.739,1,-178.777,0\C,1,1.40223,2,125.818,3,-179.976,0\C,16,1.39189,1,120.296,2,129.239,0\H,17,1.07985,16,119.514,1,-1.39944,0\C,17,1.38018,16,120.12,1,179.576,0\H,19,1.07999,17,119.5,16,178.986,0\C,16,1.39196,1,120.307,2,-50.7592,0\H,21,1.07994,16,119.525,1,-1.48567,0\C,21,1.38023,16,120.123,1,179.635,0\H,23,1.08002,21,119.505,16,178.926,0\C,23,1.39357,21,120.938,16,0.797079,0\C,15,1.40504,4,119.928,2,0.467688,0\H,26,1.07685,15,119.658,4,-179.825,0\C,26,1.37755,15,121.34,4,0.765431,0\H,28,1.07919,26,120.459,15,179.005,0\C,28,1.38931,26,119.214,15,-0.78605,0\C,15,1.45314,4,117.214,2,-179.716,0\H,31,1.08094,15,116.313,4,-0.62525,0\C,31,1.32502,15,129.011,4,179.298,0\F,33,1.32826,31,128.483,15,-0.0318979,0\F,33,1.33448,31,122.843,15,-179.904,0\C,25,1.46969,23,120.764,21,179.502,0\C,36,1.39305,25,120.668,23,41.3472,0\H,37,1.0804,36,119.547,25,1.25656,0\C,37,1.38233,36,120.595,25,179.899,0\H,39,1.08031,37,119.792,36,-179.596,0\C,39,1.38482,37,120.203,36,0.284804,0\H,41,1.07988,39,120.156,37,179.844,0\C,41,1.38484,39,119.689,37,-0.148311,0\H,43,1.08032,41,120.007,39,179.73,0\C,43,1.38231,41,120.202,39,-0.134642,0\H,45,1.0804,43,119.854,41,178.915,0\\\@

 Total job time:  162.16s(wall), 161.71s(cpu) 
 Mon Feb  7 16:46:04 2022

        *************************************************************
        *                                                           *
        *  Thank you very much for using Q-Chem.  Have a nice day.  *
        *                                                           *
        *************************************************************


