
Running Job 1 of 1 fragments/A012/conf-1/spe_input.inp
qchem fragments/A012/conf-1/spe_input.inp_165893.0 /gpfs/fs0/scratch/a/aspuru/rhickman/descriptor_computation/qchem165893/ 0
/scinet/niagara/software/commercial/qc52/exe/qcprog.exe_s fragments/A012/conf-1/spe_input.inp_165893.0 /gpfs/fs0/scratch/a/aspuru/rhickman/descriptor_computation/qchem165893/
                  Welcome to Q-Chem
     A Quantum Leap Into The Future Of Chemistry


 Q-Chem 5.2, Q-Chem, Inc., Pleasanton, CA (2019)

 License issued to: SRG Alan Aspuru-Guzik, University of Toronto

 Yihan Shao,  Zhengting Gan,  E. Epifanovsky,  A. T. B. Gilbert,  M. Wormit,  
 J. Kussmann,  A. W. Lange,  A. Behn,  Jia Deng,  Xintian Feng,  D. Ghosh,  
 M. Goldey,  P. R. Horn,  L. D. Jacobson,  I. Kaliman,  T. Kus,  A. Landau,  
 Jie Liu,  E. I. Proynov,  R. M. Richard,  R. P. Steele,  E. J. Sundstrom,  
 H. L. Woodcock III,  P. M. Zimmerman,  D. Zuev,  B. Albrecht,  E. Alguire,  
 S. A. Baeppler,  D. Barton,  Z. Benda,  Y. A. Bernard,  E. J. Berquist,  
 K. B. Bravaya,  H. Burton,  D. Casanova,  Chun-Min Chang,  Yunqing Chen,  
 A. Chien,  K. D. Closser,  M. P. Coons,  S. Coriani,  S. Dasgupta,  
 A. L. Dempwolff,  M. Diedenhofen,  Hainam Do,  R. G. Edgar,  Po-Tung Fang,  
 S. Faraji,  S. Fatehi,  Qingguo Feng,  K. D. Fenk,  J. Fosso-Tande,  
 J. Gayvert,  Qinghui Ge,  A. Ghysels,  G. Gidofalvi,  J. Gomes,  
 J. Gonthier,  A. Gunina,  D. Hait,  M. W. D. Hanson-Heine,  
 P. H. P. Harbach,  A. W. Hauser,  M. F. Herbst,  J. E. Herr,  
 E. G. Hohenstein,  Z. C. Holden,  Kerwin Hui,  B. C. Huynh,  T.-C. Jagau,  
 Hyunjun Ji,  B. Kaduk,  K. Khistyaev,  Jaehoon Kim,  P. Klunzinger,  K. Koh,  
 D. Kosenkov,  L. Koulias,  T. Kowalczyk,  C. M. Krauter,  A. Kunitsa,  
 Ka Un Lao,  A. Laurent,  K. V. Lawler,  Joonho Lee,  D. Lefrancois,  
 S. Lehtola,  D. S. Levine,  Yi-Pei Li,  You-Sheng Lin,  Fenglai Liu,  
 E. Livshits,  A. Luenser,  P. Manohar,  E. Mansoor,  S. F. Manzer,  
 Shan-Ping Mao,  Yuezhi Mao,  N. Mardirossian,  A. V. Marenich,  
 T. Markovich,  L. A. Martinez-Martinez,  S. A. Maurer,  N. J. Mayhall,  
 S. C. McKenzie,  J.-M. Mewes,  P. Morgante,  A. F. Morrison,  
 J. W. Mullinax,  K. Nanda,  T. S. Nguyen-Beck,  R. Olivares-Amaya,  
 J. A. Parkhill,  Zheng Pei,  T. M. Perrine,  F. Plasser,  P. Pokhilko,  
 S. Prager,  A. Prociuk,  E. Ramos,  D. R. Rehn,  F. Rob,  M. Scheurer,  
 M. Schneider,  N. Sergueev,  S. M. Sharada,  S. Sharma,  D. W. Small,  
 T. Stauch,  T. Stein,  Yu-Chuan Su,  A. J. W. Thom,  A. Tkatchenko,  
 T. Tsuchimochi,  N. M. Tubman,  L. Vogt,  M. L. Vidal,  O. Vydrov,  
 M. A. Watson,  J. Wenzel,  M. de Wergifosse,  T. A. Wesolowski,  A. White,  
 J. Witte,  A. Yamada,  Jun Yang,  K. Yao,  S. Yeganeh,  S. R. Yost,  
 Zhi-Qiang You,  A. Zech,  Igor Ying Zhang,  Xing Zhang,  Yan Zhao,  
 Ying Zhu,  B. R. Brooks,  G. K. L. Chan,  C. J. Cramer,  M. S. Gordon,  
 W. J. Hehre,  A. Klamt,  M. W. Schmidt,  C. D. Sherrill,  D. G. Truhlar,  
 A. Aspuru-Guzik,  R. Baer,  A. T. Bell,  N. A. Besley,  Jeng-Da Chai,  
 A. E. DePrince, III,  R. A. DiStasio Jr.,  A. Dreuw,  B. D. Dunietz,  
 T. R. Furlani,  Chao-Ping Hsu,  Yousung Jung,  Jing Kong,  D. S. Lambrecht,  
 WanZhen Liang,  C. Ochsenfeld,  V. A. Rassolov,  L. V. Slipchenko,  
 J. E. Subotnik,  T. Van Voorhis,  J. M. Herbert,  A. I. Krylov,  
 P. M. W. Gill,  M. Head-Gordon

 Contributors to earlier versions of Q-Chem not listed above: 
 R. D. Adamson,  B. Austin,  J. Baker,  G. J. O. Beran,  K. Brandhorst,  
 S. T. Brown,  E. F. C. Byrd,  A. K. Chakraborty,  C.-L. Cheng,  
 Siu Hung Chien,  D. M. Chipman,  D. L. Crittenden,  H. Dachsel,  
 R. J. Doerksen,  A. D. Dutoi,  L. Fusti-Molnar,  W. A. Goddard III,  
 A. Golubeva-Zadorozhnaya,  S. R. Gwaltney,  G. Hawkins,  A. Heyden,  
 S. Hirata,  G. Kedziora,  F. J. Keil,  C. Kelley,  Jihan Kim,  R. A. King,  
 R. Z. Khaliullin,  P. P. Korambath,  W. Kurlancheek,  A. M. Lee,  M. S. Lee,  
 S. V. Levchenko,  Ching Yeh Lin,  D. Liotard,  R. C. Lochan,  I. Lotan,  
 P. E. Maslen,  N. Nair,  D. P. O'Neill,  D. Neuhauser,  E. Neuscamman,  
 C. M. Oana,  R. Olson,  B. Peters,  R. Peverati,  P. A. Pieniazek,  
 Y. M. Rhee,  J. Ritchie,  M. A. Rohrdanz,  E. Rosta,  N. J. Russ,  
 H. F. Schaefer III,  N. E. Schultz,  N. Shenvi,  A. C. Simmonett,  A. Sodt,  
 D. Stuck,  K. S. Thanthiriwatte,  V. Vanovschi,  Tao Wang,  A. Warshel,  
 C. F. Williams,  Q. Wu,  X. Xu,  W. Zhang

 Please cite Q-Chem as follows:
 Y. Shao et al., Mol. Phys. 113, 184-215 (2015)
 DOI: 10.1080/00268976.2014.952696

 Q-Chem 5.2.1 for Intel X86 EM64T Linux

 Parts of Q-Chem use Armadillo 8.300.2 (Tropical Shenanigans).
 http://arma.sourceforge.net/

 Q-Chem begins on Mon Feb  7 18:25:31 2022  

Host: 
0

     Scratch files written to /gpfs/fs0/scratch/a/aspuru/rhickman/descriptor_computation/qchem165893//
 Jul1719 |scratch|qcdevops|jenkins|workspace|build_RNUM -1
Processing $rem in /scinet/niagara/software/commercial/qc52/config/preferences:
	 MEM_TOTAL  4000 
NAlpha2: 134
NElect   134
Mult     1

Checking the input file for inconsistencies... 	...done.

--------------------------------------------------------------
User input:
--------------------------------------------------------------
$molecule
0 1
C        -3.05475363050000   -3.09566205880000    0.97287991520000
C        -2.74996522360000   -2.50767282870000   -0.40450272680000
N        -1.97859303240000   -1.29778787730000   -0.30640796560000
C        -2.49339552940000   -0.03051230040000   -0.14666951130000
C        -1.43082561880000    0.89479393350000   -0.01777164480000
C        -1.69903830080000    2.24751098080000    0.14252758890000
C        -3.01618968710000    2.65972098580000    0.17486642940000
C        -4.05733416730000    1.74238950330000    0.05109938580000
C        -3.81497255410000    0.39154325920000   -0.10952051100000
C        -0.61159287630000   -1.22263929670000   -0.25339795440000
C        -0.21809345290000    0.12871235060000   -0.08629202660000
C         1.12116079130000    0.47130235370000   -0.01605593490000
C         2.08209624440000   -0.53264430530000   -0.10986369630000
C         3.51017625160000   -0.27421925360000   -0.04629706220000
C         4.13702562760000    0.88376739640000    0.10063317050000
F         3.60731688870000    2.09731762960000    0.22670118690000
F         5.46763526060000    0.99100992230000    0.14429808670000
C         1.67151442130000   -1.86779098470000   -0.27197464470000
C         0.34403219540000   -2.22757756930000   -0.34373868400000
H        -3.63983980040000   -4.00581732880000    0.87191238420000
H        -3.61660119700000   -2.38148732960000    1.57035689990000
H        -2.12990789340000   -3.32879457240000    1.49545900050000
H        -3.68164218750000   -2.28225292930000   -0.93049833180000
H        -2.18874726950000   -3.22901504700000   -1.00469612030000
H        -0.89149582010000    2.95691768630000    0.24024143570000
H        -3.24835525780000    3.70678075540000    0.29945424320000
H        -5.07779152490000    2.09498426910000    0.08349906710000
H        -4.63474410920000   -0.30538472910000   -0.19956495990000
H         1.40115684710000    1.50354231060000    0.11065243760000
H         4.16016640020000   -1.13363543570000   -0.12918120990000
H         2.42697721180000   -2.63691383960000   -0.34005531770000
H         0.06609291390000   -3.26380914850000   -0.46393670900000
$end

$rem
BASIS = 6-31G*
GUI = 2
METHOD = B3LYP
PRINT_ORBITALS false
MOLDEN_FORMAT false
--------------------------------------------------------------
 ----------------------------------------------------------------
             Standard Nuclear Orientation (Angstroms)
    I     Atom           X                Y                Z
 ----------------------------------------------------------------
    1      C      -3.3356849883    -2.5788386824     1.0287674630
    2      C      -2.9497453882    -2.0747326192    -0.3614619973
    3      N      -2.0195194457    -0.9801878935    -0.2899723169
    4      C      -2.3554886348     0.3495720660    -0.1659218167
    5      C      -1.1760467202     1.1231261408    -0.0546026151
    6      C      -1.2560197211     2.5036109896     0.0692650501
    7      C      -2.5040259759     3.0936417124     0.0832220387
    8      C      -3.6611610926     2.3251741501    -0.0230468930
    9      C      -3.6065353329     0.9500861775    -0.1474356865
   10      C      -0.6553013973    -1.0922623265    -0.2308518030
   11      C      -0.0800567635     0.1961053766    -0.0962422387
   12      C       1.2934246273     0.3531073232    -0.0269442786
   13      C       2.1073529122    -0.7754967135    -0.0892291953
   14      C       3.5572545092    -0.7142149897    -0.0239096675
   15      C       4.3370807584     0.3500886968     0.0968810563
   16      F       3.9790349931     1.6278154319     0.1885668328
   17      F       5.6696901416     0.2745482138     0.1456196106
   18      C       1.5174056813    -2.0453398083    -0.2193630799
   19      C       0.1532226120    -2.2210272328    -0.2896767074
   20      H      -4.0401630879    -3.4022808312     0.9477951303
   21      H      -3.7953368238    -1.7787647961     1.6043532045
   22      H      -2.4529022564    -2.9230484465     1.5626153752
   23      H      -3.8403473582    -1.7373105356    -0.8985671464
   24      H      -2.4916967702    -2.8818883544    -0.9395825559
   25      H      -0.3588046464     3.0976202422     0.1534603314
   26      H      -2.5902538336     4.1655834698     0.1794652826
   27      H      -4.6234939307     2.8154008450    -0.0057459327
   28      H      -4.5141645097     0.3703152194    -0.2243573336
   29      H       1.7124459357     1.3400405600     0.0748204533
   30      H       4.0830479237    -1.6566877753    -0.0808261238
   31      H       2.1600542568    -2.9125143645    -0.2631816735
   32      H      -0.2643255052    -3.2120243535    -0.3848185586
 ----------------------------------------------------------------
 Molecular Point Group                 C1    NOp =  1
 Largest Abelian Subgroup              C1    NOp =  1
 Nuclear Repulsion Energy =        1338.70433169 hartrees
 There are       67 alpha and       67 beta electrons
 Requested basis set is 6-31G(d)
 There are 102 shells and 311 basis functions

 Total QAlloc Memory Limit   4000 MB
 Mega-Array Size       188 MB
 MEM_STATIC part       192 MB
 A cutoff of  1.0D-08 yielded   2960 shell pairs
 There are     29724 function pairs
 Smallest overlap matrix eigenvalue = 2.67E-04

 Scale SEOQF with 1.000000e-02/1.000000e-01/1.000000e-01

 Standard Electronic Orientation quadrupole field applied
 Nucleus-field energy     =     0.0000000310 hartrees
 Guess from superposition of atomic densities
 Warning:  Energy on first SCF cycle will be non-variational
 SAD guess density has 134.000000 electrons

 -----------------------------------------------------------------------
  General SCF calculation program by
  Eric Jon Sundstrom, Paul Horn, Yuezhi Mao, Dmitri Zuev, Alec White,
  David Stuck, Shaama M.S., Shane Yost, Joonho Lee, David Small,
  Daniel Levine, Susi Lehtola, Hugh Burton, Evgeny Epifanovsky,
  Bang C. Huynh
 -----------------------------------------------------------------------
 Exchange:     0.2000 Hartree-Fock + 0.0800 Slater + 0.7200 B88
 Correlation:  0.1900 VWN1RPA + 0.8100 LYP
 Using SG-1 standard quadrature grid
 A restricted SCF calculation will be
 performed using DIIS
 SCF converges when DIIS error is below 1.0e-05
 ---------------------------------------
  Cycle       Energy         DIIS error
 ---------------------------------------
    1    -876.8183651618      4.69e-02  
    2    -871.6720189833      4.78e-03  
    3    -871.4828525216      6.21e-03  
    4    -871.9407984967      1.37e-03  
    5    -871.9622411237      4.42e-04  
    6    -871.9642490304      2.15e-04  
    7    -871.9648241720      5.58e-05  
    8    -871.9648568383      2.03e-05  
    9    -871.9648622379      5.44e-06  Convergence criterion met
 ---------------------------------------
 SCF time:   CPU 73.90s  wall 75.00s 
 SCF   energy in the final basis set =     -871.9648622379
 Total energy in the final basis set =     -871.9648622379
 
 --------------------------------------------------------------
 
                    Orbital Energies (a.u.)
 --------------------------------------------------------------
 
 Alpha MOs
 -- Occupied --
-24.7354 -24.7241 -14.3766 -10.3449 -10.2364 -10.2199 -10.2189 -10.1948
-10.1944 -10.1883 -10.1872 -10.1869 -10.1858 -10.1837 -10.1837 -10.1837
-10.1831 -10.1818 -10.1764  -1.2748  -1.2142  -0.9968  -0.8607  -0.8506
 -0.8101  -0.7857  -0.7637  -0.7461  -0.7190  -0.7159  -0.6647  -0.6339
 -0.6272  -0.6035  -0.5812  -0.5793  -0.5613  -0.5247  -0.5242  -0.5197
 -0.5090  -0.4833  -0.4666  -0.4623  -0.4527  -0.4426  -0.4376  -0.4319
 -0.4317  -0.4273  -0.4160  -0.4103  -0.4020  -0.3975  -0.3886  -0.3751
 -0.3673  -0.3617  -0.3592  -0.3393  -0.3324  -0.3268  -0.2853  -0.2747
 -0.2373  -0.2109  -0.1895
 -- Virtual --
 -0.0263  -0.0120   0.0231   0.0449   0.0756   0.0868   0.0944   0.1061
  0.1195   0.1326   0.1372   0.1416   0.1568   0.1598   0.1687   0.1712
  0.1724   0.1805   0.1873   0.2004   0.2084   0.2095   0.2257   0.2274
  0.2465   0.2734   0.2758   0.2890   0.3150   0.3294   0.3442   0.3560
  0.3771   0.3867   0.4119   0.4303   0.4570   0.4677   0.4828   0.4920
  0.5054   0.5156   0.5228   0.5331   0.5421   0.5445   0.5499   0.5555
  0.5628   0.5686   0.5756   0.5793   0.5823   0.5887   0.5912   0.6025
  0.6077   0.6112   0.6184   0.6230   0.6255   0.6260   0.6321   0.6483
  0.6619   0.6628   0.6736   0.6962   0.7180   0.7320   0.7542   0.7658
  0.7821   0.8022   0.8146   0.8163   0.8280   0.8331   0.8457   0.8512
  0.8594   0.8644   0.8816   0.8840   0.8936   0.8969   0.9134   0.9248
  0.9337   0.9433   0.9477   0.9625   0.9729   0.9845   0.9892   0.9957
  1.0151   1.0299   1.0424   1.0624   1.0815   1.1248   1.1345   1.1519
  1.1620   1.1686   1.1819   1.1905   1.2053   1.2188   1.2351   1.2408
  1.2633   1.2787   1.2843   1.3222   1.3356   1.3365   1.3534   1.3582
  1.3654   1.3997   1.4097   1.4127   1.4459   1.4528   1.4580   1.4645
  1.4698   1.4765   1.4929   1.5033   1.5041   1.5272   1.5690   1.6050
  1.6326   1.6397   1.6823   1.6854   1.7337   1.7455   1.7714   1.7809
  1.7866   1.7973   1.7985   1.8254   1.8375   1.8452   1.8465   1.8540
  1.8781   1.8922   1.9022   1.9043   1.9229   1.9402   1.9600   1.9746
  1.9813   1.9932   1.9964   2.0025   2.0138   2.0369   2.0406   2.0494
  2.0612   2.0815   2.0866   2.1337   2.1477   2.1508   2.1606   2.1738
  2.1967   2.2089   2.2324   2.2426   2.2509   2.2554   2.2697   2.2835
  2.2968   2.3165   2.3252   2.3437   2.3478   2.3564   2.4055   2.4326
  2.4420   2.4969   2.5228   2.5301   2.5353   2.5555   2.5827   2.6027
  2.6142   2.6505   2.6712   2.6743   2.6911   2.7138   2.7289   2.7351
  2.7655   2.7878   2.8056   2.8509   2.8706   2.8965   2.9213   2.9453
  2.9878   3.0694   3.0810   3.1561   3.2658   3.2856   3.3728   3.4303
  3.5641   4.0789   4.0887   4.1068   4.1163   4.1377   4.1522   4.1829
  4.1949   4.2787   4.3020   4.3815   4.3972   4.4551   4.5411   4.5585
  4.7607   4.8021   4.8927   5.2897
 --------------------------------------------------------------
 
          Ground-State Mulliken Net Atomic Charges

     Atom                 Charge (a.u.)
  ----------------------------------------
      1 C                    -0.444697
      2 C                    -0.167044
      3 N                    -0.618438
      4 C                     0.321913
      5 C                     0.061426
      6 C                    -0.192500
      7 C                    -0.148140
      8 C                    -0.136666
      9 C                    -0.184448
     10 C                     0.329962
     11 C                     0.064631
     12 C                    -0.269733
     13 C                     0.183220
     14 C                    -0.301411
     15 C                     0.536937
     16 F                    -0.239747
     17 F                    -0.255427
     18 C                    -0.207862
     19 C                    -0.182393
     20 H                     0.150119
     21 H                     0.165266
     22 H                     0.164302
     23 H                     0.161791
     24 H                     0.161047
     25 H                     0.131636
     26 H                     0.121971
     27 H                     0.124208
     28 H                     0.124971
     29 H                     0.140225
     30 H                     0.154307
     31 H                     0.123581
     32 H                     0.126991
  ----------------------------------------
  Sum of atomic charges =     0.000000

 -----------------------------------------------------------------
                    Cartesian Multipole Moments
 -----------------------------------------------------------------
    Charge (ESU x 10^10)
                 0.0000
    Dipole Moment (Debye)
         X      -2.5922      Y      -2.2235      Z      -0.1062
       Tot       3.4169
    Quadrupole Moments (Debye-Ang)
        XX    -103.4600     XY       1.4998     YY     -97.0440
        XZ       0.2393     YZ       1.3042     ZZ    -111.5943
    Octopole Moments (Debye-Ang^2)
       XXX     -16.7999    XXY     -22.2818    XYY      11.6212
       YYY       4.3615    XXZ      -3.9914    XYZ      -2.2414
       YYZ      -0.1310    XZZ      27.7871    YZZ       1.1595
       ZZZ       4.5179
    Hexadecapole Moments (Debye-Ang^3)
      XXXX   -5364.3718   XXXY      17.2294   XXYY   -1139.7756
      XYYY      50.9746   YYYY   -1889.6596   XXXZ      12.5507
      XXYZ       8.4285   XYYZ       2.0945   YYYZ      21.4544
      XXZZ    -937.6830   XYZZ      47.6893   YYZZ    -391.5715
      XZZZ      14.9095   YZZZ       1.7074   ZZZZ    -196.5835
 -----------------------------------------------------------------
Archival summary:
1\1\nia1977.scinet.local\SP\ProcedureUnspecified\6-31G*\211613\rhickman\MonFeb718:26:462022MonFeb718:26:462022\0\\#,ProcedureUnspecified,6-31G*,\\0,1\N\C,1,1.37009\C,1,1.37714,2,108.543\C,3,1.38783,1,129.712,2,-178.949,0\H,4,1.07974,3,121.632,1,0.815184,0\C,4,1.38178,3,117.868,1,-179.352,0\H,6,1.08014,4,119.23,3,-179.97,0\C,2,1.38971,1,130.084,3,178.971,0\H,8,1.07957,2,121.621,1,-0.839827,0\C,8,1.37725,2,118.067,1,179.333,0\H,10,1.08024,8,118.999,2,179.97,0\C,6,1.39312,4,121.532,3,-0.0995632,0\H,12,1.0797,6,119.217,4,-179.962,0\C,12,1.38053,6,120.954,4,-0.0732243,0\H,14,1.07932,12,121.029,6,-179.879,0\C,14,1.38834,12,118.552,6,0.0610035,0\C,10,1.40623,8,122.375,2,0.115745,0\C,17,1.39288,10,119.385,8,0.0566871,0\H,18,1.07702,17,121.29,10,179.864,0\C,18,1.38416,17,119.058,10,-0.0630843,0\C,1,1.43821,2,125.726,3,-175.44,0\H,21,1.09339,1,108.445,2,-150.874,0\H,21,1.0934,1,108.49,2,-33.7882,0\C,17,1.45267,10,117.451,8,179.953,0\H,24,1.08072,17,116.515,10,0.0210565,0\C,24,1.32494,17,128.715,10,179.993,0\F,26,1.33011,24,128.28,17,0.0238743,0\F,26,1.33564,24,123.034,17,-179.982,0\C,21,1.52834,1,111.662,2,87.6957,0\H,29,1.08669,21,110.234,1,179.835,0\H,29,1.08752,21,110.213,1,59.6735,0\H,29,1.08756,21,110.239,1,-59.982,0\\\@

 Total job time:  75.21s(wall), 74.18s(cpu) 
 Mon Feb  7 18:26:46 2022

        *************************************************************
        *                                                           *
        *  Thank you very much for using Q-Chem.  Have a nice day.  *
        *                                                           *
        *************************************************************


