
Running Job 1 of 1 tidas/B034/conf-1/spe_input.inp
qchem tidas/B034/conf-1/spe_input.inp_246977.0 /home/a/aspuru/seifridm/acdc_laser/descriptor_computation/qchem246977/ 0
/gpfs/fs1/scinet/niagara/software/commercial/qc54/exe/qcprog.exe_s tidas/B034/conf-1/spe_input.inp_246977.0 /home/a/aspuru/seifridm/acdc_laser/descriptor_computation/qchem246977/
                  Welcome to Q-Chem
     A Quantum Leap Into The Future Of Chemistry


 Q-Chem 5.4, Q-Chem, Inc., Pleasanton, CA (2021)

 License issued to: SRG Alan Aspuru-Guzik, University of Toronto

 E. Epifanovsky,  A. T. B. Gilbert,  Xintian Feng,  Joonho Lee,  Yuezhi Mao,  
 N. Mardirossian,  P. Pokhilko,  A. White,  M. Wormit,  M. P. Coons,  
 A. L. Dempwolff,  Zhengting Gan,  D. Hait,  P. R. Horn,  L. D. Jacobson,  
 I. Kaliman,  J. Kussmann,  A. W. Lange,  Ka Un Lao,  D. S. Levine,  Jie Liu,  
 S. C. McKenzie,  A. F. Morrison,  K. Nanda,  F. Plasser,  D. R. Rehn,  
 M. L. Vidal,  Zhi-Qiang You,  Ying Zhu,  B. Alam,  B. Albrecht,  
 A. Aldossary,  E. Alguire,  J. H. Andersen,  D. Barton,  K. Begam,  A. Behn,  
 Y. A. Bernard,  E. J. Berquist,  H. Burton,  A. Carreras,  K. Carter-Fenk,  
 Romit Chakraborty,  A. D. Chien,  K. D. Closser,  V. Cofer-Shabica,  
 S. Dasgupta,  Jia Deng,  M. de Wergifosse,  M. Diedenhofen,  Hainam Do,  
 S. Ehlert,  Po-Tung Fang,  S. Fatehi,  Qingguo Feng,  T. Friedhoff,  
 J. Gayvert,  Qinghui Ge,  G. Gidofalvi,  M. Goldey,  J. Gomes,  
 C. Gonzalez-Espinoza,  S. Gulania,  A. Gunina,  M. W. D. Hanson-Heine,  
 P. H. P. Harbach,  A. W. Hauser,  M. F. Herbst,  M. Hernandez Vera,  
 M. Hodecker,  Z. C. Holden,  S. Houck,  Xunkun Huang,  Kerwin Hui,  
 B. C. Huynh,  M. Ivanov,  Hyunjun Ji,  Hanjie Jiang,  B. Kaduk,  S. Kaehler,  
 K. Khistyaev,  Jaehoon Kim,  P. Klunzinger,  Z. Koczor-Benda,  
 Joong Hoon Koh,  D. Kosenkov,  L. Koulias,  T. Kowalczyk,  C. M. Krauter,  
 K. Kue,  A. Kunitsa,  T. Kus,  A. Landau,  K. V. Lawler,  D. Lefrancois,  
 S. Lehtola,  Rain Li,  Yi-Pei Li,  Jiashu Liang,  M. Liebenthal,  
 Hung-Hsuan Lin,  You-Sheng Lin,  Fenglai Liu,  Kuan-Yu Liu,  
 M. Loipersberger,  A. Luenser,  A. Manjanath,  P. Manohar,  E. Mansoor,  
 S. F. Manzer,  Shan-Ping Mao,  A. V. Marenich,  T. Markovich,  S. Mason,  
 S. A. Maurer,  P. F. McLaughlin,  M. F. S. J. Menger,  J.-M. Mewes,  
 S. A. Mewes,  P. Morgante,  J. W. Mullinax,  K. J. Oosterbaan,  G. Paran,  
 Alexander C. Paul,  Suranjan K. Paul,  F. Pavosevic,  Zheng Pei,  S. Prager,  
 E. I. Proynov,  E. Ramos,  B. Rana,  A. E. Rask,  A. Rettig,  R. M. Richard,  
 F. Rob,  E. Rossomme,  T. Scheele,  M. Scheurer,  M. Schneider,  
 N. Sergueev,  S. M. Sharada,  W. Skomorowski,  D. W. Small,  C. J. Stein,  
 Yu-Chuan Su,  E. J. Sundstrom,  Zhen Tao,  J. Thirman,  T. Tsuchimochi,  
 N. M. Tubman,  S. P. Veccham,  O. Vydrov,  J. Wenzel,  J. Witte,  A. Yamada,  
 Kun Yao,  S. Yeganeh,  S. R. Yost,  A. Zech,  Igor Ying Zhang,  Xing Zhang,  
 Yu Zhang,  D. Zuev,  A. Aspuru-Guzik,  A. T. Bell,  N. A. Besley,  
 K. B. Bravaya,  B. R. Brooks,  D. Casanova,  Jeng-Da Chai,  S. Coriani,  
 C. J. Cramer,  A. E. DePrince, III,  R. A. DiStasio Jr.,  A. Dreuw,  
 B. D. Dunietz,  T. R. Furlani,  W. A. Goddard III,  S. Grimme,  
 S. Hammes-Schiffer,  T. Head-Gordon,  W. J. Hehre,  Chao-Ping Hsu,  
 T.-C. Jagau,  Yousung Jung,  A. Klamt,  Jing Kong,  D. S. Lambrecht,  
 WanZhen Liang,  N. J. Mayhall,  C. W. McCurdy,  J. B. Neaton,  T. Neudecker,  
 C. Ochsenfeld,  J. A. Parkhill,  R. Peverati,  V. A. Rassolov,  Yihan Shao,  
 L. V. Slipchenko,  R. P. Steele,  J. E. Subotnik,  A. J. W. Thom,  
 A. Tkatchenko,  D. G. Truhlar,  T. Van Voorhis,  T. A. Wesolowski,  
 K. B. Whaley,  H. L. Woodcock III,  P. M. Zimmerman,  S. Faraji,  
 P. M. W. Gill,  M. Head-Gordon,  J. M. Herbert,  A. I. Krylov

 Additional authors since Version 5.4.0: 
 Chandrima Chakravarty,  L. Cunha,  R. Kang,  Yongbin Kim,  S. Kotaru,  
 Shaozhi Li,  Xiangyuan Li,  F. Matz,  A. Molle,  V. Parravicini,  
 Haisheng Ren,  Hengyuan Shen,  Yingli Su,  Hung-Yi Tsai,  C. Utku,  
 Fang Wang,  Jeff Yang,  F. Zeller

 Contributors to earlier versions of Q-Chem not listed above: 
 R. D. Adamson,  B. Austin,  R. Baer,  J. Baker,  G. J. O. Beran,  
 K. Brandhorst,  S. T. Brown,  E. F. C. Byrd,  Arup K. Chakraborty,  
 G. K. L. Chan,  Chun-Min Chang,  Yunqing Chen,  C.-L. Cheng,  
 Siu Hung Chien,  D. M. Chipman,  D. L. Crittenden,  H. Dachsel,  
 R. J. Doerksen,  A. D. Dutoi,  R. G. Edgar,  J. Fosso-Tande,  
 L. Fusti-Molnar,  D. Ghosh,  A. Ghysels,  A. Golubeva-Zadorozhnaya,  
 J. Gonthier,  M. S. Gordon,  S. R. Gwaltney,  G. Hawkins,  J. E. Herr,  
 A. Heyden,  S. Hirata,  E. G. Hohenstein,  G. Kedziora,  F. J. Keil,  
 C. Kelley,  Jihan Kim,  R. A. King,  R. Z. Khaliullin,  P. P. Korambath,  
 W. Kurlancheek,  A. Laurent,  A. M. Lee,  M. S. Lee,  S. V. Levchenko,  
 Ching Yeh Lin,  D. Liotard,  E. Livshits,  R. C. Lochan,  I. Lotan,  
 L. A. Martinez-Martinez,  P. E. Maslen,  N. Nair,  D. P. O'Neill,  
 D. Neuhauser,  E. Neuscamman,  C. M. Oana,  R. Olivares-Amaya,  R. Olson,  
 T. M. Perrine,  B. Peters,  P. A. Pieniazek,  A. Prociuk,  Y. M. Rhee,  
 J. Ritchie,  M. A. Rohrdanz,  E. Rosta,  N. J. Russ,  H. F. Schaefer III,  
 M. W. Schmidt,  N. E. Schultz,  S. Sharma,  N. Shenvi,  C. D. Sherrill,  
 A. C. Simmonett,  A. Sodt,  T. Stein,  D. Stuck,  K. S. Thanthiriwatte,  
 V. Vanovschi,  L. Vogt,  Tao Wang,  A. Warshel,  M. A. Watson,  
 C. F. Williams,  Q. Wu,  X. Xu,  Jun Yang,  W. Zhang,  Yan Zhao

   Please cite Q-Chem as follows:
  "Software for the frontiers of quantum chemistry:
   An overview of developments in the Q-Chem 5 package"
   J. Chem. Phys. 155, 084801 (2021)
   https://doi.org/10.1063/5.0055522 (open access)

 Q-Chem 5.4.2 for Intel X86 EM64T Linux

 Parts of Q-Chem use Armadillo 9.900.5 (Nocturnal Misbehaviour).
 http://arma.sourceforge.net/

 Q-Chem begins on Fri Aug 12 12:44:31 2022  

 Host: 
0

     Scratch files written to /home/a/aspuru/seifridm/acdc_laser/descriptor_computation/qchem246977//
 Dec1321 |scratch|qcdevops|jenkins|workspace|build_RNUM 6959   
 Processing $rem in /gpfs/fs1/scinet/niagara/software/commercial/qc54/config/preferences:
 Processing $rem in /home/a/aspuru/seifridm/.qchemrc:

 Checking the input file for inconsistencies... 	...done.

--------------------------------------------------------------
User input:
--------------------------------------------------------------
$molecule
0 1
C           -4.76918214030000        0.07403351360000        0.16725184010000
C           -3.74397310560000       -0.75044285170000       -0.01484189390000
C           -2.33261241870000       -0.39410952580000       -0.05910028810000
C           -1.38183316380000       -1.40513460060000       -0.20706863100000
C           -0.03686083990000       -1.11092420360000       -0.25013171770000
C            0.41639581320000        0.20543657420000       -0.14915211530000
C            1.83515433980000        0.52721999320000       -0.21083911800000
C            2.85552326910000       -0.28086311970000        0.03324796860000
F            2.82356411710000       -1.55308586850000        0.41401945850000
F            4.12863062220000        0.10765504100000       -0.05845127930000
C           -0.52812656530000        1.23717012940000       -0.00652781420000
C           -0.10509575620000        2.67128552590000        0.11520951110000
C           -1.87354238220000        0.91960449970000        0.03734068970000
H           -5.78196807470000       -0.29017442990000        0.18607598820000
H           -4.64988078020000        1.13474350950000        0.30654101530000
H           -3.94110595570000       -1.80808908500000       -0.14276606840000
H           -1.70503906530000       -2.43272300250000       -0.29008726100000
H            0.67165898670000       -1.91326438040000       -0.37847869910000
H            2.10997246070000        1.53633438710000       -0.47671511200000
H            0.38317278700000        3.00962463800000       -0.79867298560000
H            0.59080303060000        2.80215869330000        0.94236015090000
H           -0.96910187140000        3.30705095770000        0.29055195900000
H           -2.58750294080000        1.72144436140000        0.14897060790000
$end

$rem
BASIS = 6-31G*
GUI = 2
METHOD = B3LYP
PRINT_ORBITALS false
MOLDEN_FORMAT false
$end
--------------------------------------------------------------
 ----------------------------------------------------------------
             Standard Nuclear Orientation (Angstroms)
    I     Atom           X                Y                Z
 ----------------------------------------------------------------
    1      C       4.6481975342     0.0810337175     0.1761123393
    2      C       3.6035832519     0.8825746613     0.0020833576
    3      C       2.2012813619     0.4928330117    -0.0481370457
    4      C       1.2265366315     1.4822602674    -0.1858103543
    5      C      -0.1108968314     1.1562070092    -0.2340363266
    6      C      -0.5323592348    -0.1717744891    -0.1487207145
    7      C      -1.9428721049    -0.5269572260    -0.2159834726
    8      C      -2.9827053279     0.2534281523     0.0359591889
    9      F      -2.9818646119     1.5216036094     0.4312936559
   10      F      -4.2459670187    -0.1646083466    -0.0618816616
   11      C       0.4366359125    -1.1819925047    -0.0166362378
   12      C       0.0482103732    -2.6271954884     0.0881299244
   13      C       1.7739482214    -0.8325908780     0.0326627140
   14      H       5.6518779945     0.4693248889     0.2004561955
   15      H       4.5543822797    -0.9837721202     0.3031052930
   16      H       3.7752691363     1.9460648961    -0.1134760966
   17      H       1.5249364370     2.5182296244    -0.2566419772
   18      H      -0.8384372510     1.9426423085    -0.3541508953
   19      H      -2.1929730343    -1.5392929798    -0.4937473119
   20      H      -0.4307781395    -2.9667162387    -0.8302144596
   21      H      -0.6452065296    -2.7842882363     0.9127971032
   22      H       0.9271215663    -3.2439037117     0.2573496265
   23      H       2.5069334902    -1.6182031957     0.1360743369
 ----------------------------------------------------------------
 Molecular Point Group                 C1    NOp =  1
 Largest Abelian Subgroup              C1    NOp =  1
 Nuclear Repulsion Energy =         733.13375971 hartrees
 There are       47 alpha and       47 beta electrons
 Requested basis set is 6-31G(d)
 There are 72 shells and 215 basis functions

 Total QAlloc Memory Limit   8000 MB
 Mega-Array Size       188 MB
 MEM_STATIC part       192 MB
 A cutoff of  1.0D-08 yielded   1770 shell pairs
 There are     16690 function pairs
 Smallest overlap matrix eigenvalue = 3.27E-04

 Scale SEOQF with 1.000000e-02/1.000000e-01/1.000000e+00

 Standard Electronic Orientation quadrupole field applied
 Nucleus-field energy     =     0.0000000078 hartrees
 Guess from superposition of atomic densities
 Warning:  Energy on first SCF cycle will be non-variational
 SAD guess density has 94.000000 electrons

 -----------------------------------------------------------------------
  General SCF calculation program by
  Eric Jon Sundstrom, Paul Horn, Yuezhi Mao, Dmitri Zuev, Alec White,
  David Stuck, Shaama M.S., Shane Yost, Joonho Lee, David Small,
  Daniel Levine, Susi Lehtola, Hugh Burton, Evgeny Epifanovsky,
  Bang C. Huynh
 -----------------------------------------------------------------------
 Exchange:     0.2000 Hartree-Fock + 0.0800 Slater + 0.7200 B88
 Correlation:  0.1900 VWN1RPA + 0.8100 LYP
 Using SG-1 standard quadrature grid
 A restricted SCF calculation will be
 performed using DIIS
 SCF converges when DIIS error is below 1.0e-05
 ---------------------------------------
  Cycle       Energy         DIIS error
 ---------------------------------------
    1    -627.7074507008      5.42e-02  
    2    -624.5941414786      6.23e-03  
    3    -624.4124114952      8.31e-03  
    4    -624.8168680962      1.55e-03  
    5    -624.8307500697      4.33e-04  
    6    -624.8314793236      2.37e-04  
    7    -624.8318205167      5.32e-05  
    8    -624.8318354145      2.05e-05  
    9    -624.8318376226      7.18e-06  Convergence criterion met
 ---------------------------------------
 SCF time:   CPU 45.46s  wall 49.00s 
 SCF   energy in the final basis set =     -624.8318376226
 Total energy in the final basis set =     -624.8318376226
 
 --------------------------------------------------------------
 
                    Orbital Energies (a.u.)
 --------------------------------------------------------------
 
 Alpha MOs
 -- Occupied --
-24.7430 -24.7332 -10.3563 -10.2019 -10.2014 -10.1973 -10.1926 -10.1892
-10.1854 -10.1853 -10.1843 -10.1837 -10.1789  -1.2838  -1.2230  -0.8719
 -0.8173  -0.7833  -0.7688  -0.7219  -0.6918  -0.6491  -0.6183  -0.5939
 -0.5693  -0.5591  -0.5287  -0.5179  -0.4884  -0.4831  -0.4493  -0.4440
 -0.4387  -0.4353  -0.4282  -0.4176  -0.4109  -0.4075  -0.3880  -0.3714
 -0.3699  -0.3427  -0.3353  -0.3162  -0.2661  -0.2471  -0.2081
 -- Virtual --
 -0.0428   0.0042   0.0260   0.0890   0.0899   0.1077   0.1152   0.1330
  0.1414   0.1504   0.1555   0.1669   0.1877   0.1957   0.2115   0.2148
  0.2204   0.2630   0.2872   0.3037   0.3333   0.3569   0.3583   0.3953
  0.4114   0.4434   0.4792   0.4984   0.5043   0.5065   0.5159   0.5445
  0.5539   0.5620   0.5682   0.5726   0.5795   0.5892   0.6073   0.6126
  0.6131   0.6172   0.6302   0.6388   0.6556   0.6957   0.7025   0.7121
  0.7383   0.7571   0.7738   0.7909   0.8038   0.8246   0.8390   0.8506
  0.8597   0.8851   0.8863   0.9030   0.9236   0.9505   0.9618   0.9733
  0.9868   0.9926   1.0113   1.0372   1.0647   1.1015   1.1092   1.1241
  1.1407   1.1744   1.1855   1.2075   1.2171   1.2387   1.2585   1.2697
  1.3063   1.3220   1.3344   1.3684   1.3840   1.4061   1.4138   1.4520
  1.4524   1.4751   1.4822   1.4861   1.5086   1.5221   1.5446   1.5986
  1.6782   1.6907   1.7337   1.7613   1.7807   1.7943   1.8082   1.8270
  1.8426   1.8494   1.8531   1.8984   1.9079   1.9221   1.9490   1.9721
  1.9833   1.9899   2.0060   2.0209   2.0342   2.0550   2.0749   2.1164
  2.1317   2.1446   2.1680   2.2031   2.2172   2.2324   2.2611   2.2772
  2.2992   2.3114   2.3408   2.3591   2.3848   2.4285   2.4593   2.5127
  2.5215   2.5290   2.5910   2.6388   2.6530   2.6792   2.6940   2.7141
  2.7779   2.8166   2.8731   2.9266   2.9480   2.9886   3.0490   3.1383
  3.1815   3.3141   3.4773   4.0863   4.0953   4.1098   4.1273   4.1537
  4.2236   4.2563   4.3248   4.3817   4.5273   4.7361   4.8092   5.2675
 --------------------------------------------------------------
 
          Ground-State Mulliken Net Atomic Charges

     Atom                 Charge (a.u.)
  ----------------------------------------
      1 C                    -0.352560
      2 C                    -0.117410
      3 C                     0.197483
      4 C                    -0.206924
      5 C                    -0.191952
      6 C                     0.134593
      7 C                    -0.310307
      8 C                     0.550954
      9 F                    -0.234746
     10 F                    -0.250080
     11 C                     0.132548
     12 C                    -0.538277
     13 C                    -0.262352
     14 H                     0.143816
     15 H                     0.141980
     16 H                     0.126733
     17 H                     0.127442
     18 H                     0.135944
     19 H                     0.161560
     20 H                     0.163869
     21 H                     0.167299
     22 H                     0.160403
     23 H                     0.119985
  ----------------------------------------
  Sum of atomic charges =     0.000000

 -----------------------------------------------------------------
                    Cartesian Multipole Moments
 -----------------------------------------------------------------
    Charge (ESU x 10^10)
                 0.0000
    Dipole Moment (Debye)
         X       0.6933      Y      -0.8519      Z      -0.1798
       Tot       1.1129
    Quadrupole Moments (Debye-Ang)
        XX     -74.5603     XY       1.3105     YY     -67.6170
        XZ       0.9007     YZ      -0.7772     ZZ     -76.8968
    Octopole Moments (Debye-Ang^2)
       XXX     -16.9220    XXY       1.3611    XYY     -11.0008
       YYY      10.2038    XXZ       2.1593    XYZ      -1.4715
       YYZ      -1.1497    XZZ     -28.4403    YZZ       1.6017
       ZZZ       4.1091
    Hexadecapole Moments (Debye-Ang^3)
      XXXX   -2940.2854   XXXY     -18.1789   XXYY    -592.0138
      XYYY     -20.2586   YYYY    -742.8723   XXXZ       5.4133
      XXYZ      -6.3334   XYYZ       1.0395   YYYZ       2.6730
      XXZZ    -536.7180   XYZZ     -12.7152   YYZZ    -145.8024
      XZZZ     -11.6480   YZZZ       6.6356   ZZZZ     -96.0347
 -----------------------------------------------------------------
 Total job time:  49.32s(wall), 45.90s(cpu) 
 Fri Aug 12 12:45:20 2022

        *************************************************************
        *                                                           *
        *  Thank you very much for using Q-Chem.  Have a nice day.  *
        *                                                           *
        *************************************************************


