24
 energy: -42.106913531058 gnorm: 0.000110344801 xtb: 6.4.1 (23d549d)
C        -4.04260183750000    0.39306845760000    0.12408417170000
C        -3.04932996680000   -0.48341963270000    0.02537053990000
C        -1.61876612640000   -0.21184982650000   -0.02282257190000
C        -0.73483077900000   -1.28601186380000   -0.09721260780000
C         0.64946891800000   -1.16459452520000   -0.15932387120000
C         1.44253131680000   -2.39025764900000   -0.33182744730000
C         1.21038664500000   -3.52295839160000    0.31485273550000
C         1.21413669030000    0.11987549170000   -0.11476145890000
O         2.52542421010000    0.46253146560000   -0.12080141040000
C         3.52277900900000   -0.43376539540000    0.31739952370000
C         0.33593682080000    1.20998067550000   -0.05020259600000
F         0.85826996740000    2.44974754920000   -0.01518991750000
C        -1.03813230870000    1.05961711400000   -0.01483442970000
F        -1.78308579850000    2.17750338330000    0.03811809690000
H        -5.06574729580000    0.05813395560000    0.15128825300000
H        -3.89244253530000    1.45542719480000    0.18117470510000
H        -3.28686576910000   -1.53929209960000   -0.02474943710000
H        -1.14910262810000   -2.28206622900000   -0.14232431510000
H         2.22888776720000   -2.34524579690000   -1.07240192290000
H         0.44538193030000   -3.60125334290000    1.06927690300000
H         1.79134495900000   -4.40916689530000    0.12705546860000
H         4.29384155010000    0.18421447460000    0.78033012610000
H         3.96567078820000   -0.97308211020000   -0.52382798800000
H         3.13852328420000   -1.14533760030000    1.05015952140000
