
Running Job 1 of 1 fragments/A030/conf-4/spe_input.inp
qchem fragments/A030/conf-4/spe_input.inp_86970.0 /gpfs/fs0/scratch/a/aspuru/rhickman/descriptor_computation/qchem86970/ 0
/scinet/niagara/software/commercial/qc52/exe/qcprog.exe_s fragments/A030/conf-4/spe_input.inp_86970.0 /gpfs/fs0/scratch/a/aspuru/rhickman/descriptor_computation/qchem86970/
                  Welcome to Q-Chem
     A Quantum Leap Into The Future Of Chemistry


 Q-Chem 5.2, Q-Chem, Inc., Pleasanton, CA (2019)

 License issued to: SRG Alan Aspuru-Guzik, University of Toronto

 Yihan Shao,  Zhengting Gan,  E. Epifanovsky,  A. T. B. Gilbert,  M. Wormit,  
 J. Kussmann,  A. W. Lange,  A. Behn,  Jia Deng,  Xintian Feng,  D. Ghosh,  
 M. Goldey,  P. R. Horn,  L. D. Jacobson,  I. Kaliman,  T. Kus,  A. Landau,  
 Jie Liu,  E. I. Proynov,  R. M. Richard,  R. P. Steele,  E. J. Sundstrom,  
 H. L. Woodcock III,  P. M. Zimmerman,  D. Zuev,  B. Albrecht,  E. Alguire,  
 S. A. Baeppler,  D. Barton,  Z. Benda,  Y. A. Bernard,  E. J. Berquist,  
 K. B. Bravaya,  H. Burton,  D. Casanova,  Chun-Min Chang,  Yunqing Chen,  
 A. Chien,  K. D. Closser,  M. P. Coons,  S. Coriani,  S. Dasgupta,  
 A. L. Dempwolff,  M. Diedenhofen,  Hainam Do,  R. G. Edgar,  Po-Tung Fang,  
 S. Faraji,  S. Fatehi,  Qingguo Feng,  K. D. Fenk,  J. Fosso-Tande,  
 J. Gayvert,  Qinghui Ge,  A. Ghysels,  G. Gidofalvi,  J. Gomes,  
 J. Gonthier,  A. Gunina,  D. Hait,  M. W. D. Hanson-Heine,  
 P. H. P. Harbach,  A. W. Hauser,  M. F. Herbst,  J. E. Herr,  
 E. G. Hohenstein,  Z. C. Holden,  Kerwin Hui,  B. C. Huynh,  T.-C. Jagau,  
 Hyunjun Ji,  B. Kaduk,  K. Khistyaev,  Jaehoon Kim,  P. Klunzinger,  K. Koh,  
 D. Kosenkov,  L. Koulias,  T. Kowalczyk,  C. M. Krauter,  A. Kunitsa,  
 Ka Un Lao,  A. Laurent,  K. V. Lawler,  Joonho Lee,  D. Lefrancois,  
 S. Lehtola,  D. S. Levine,  Yi-Pei Li,  You-Sheng Lin,  Fenglai Liu,  
 E. Livshits,  A. Luenser,  P. Manohar,  E. Mansoor,  S. F. Manzer,  
 Shan-Ping Mao,  Yuezhi Mao,  N. Mardirossian,  A. V. Marenich,  
 T. Markovich,  L. A. Martinez-Martinez,  S. A. Maurer,  N. J. Mayhall,  
 S. C. McKenzie,  J.-M. Mewes,  P. Morgante,  A. F. Morrison,  
 J. W. Mullinax,  K. Nanda,  T. S. Nguyen-Beck,  R. Olivares-Amaya,  
 J. A. Parkhill,  Zheng Pei,  T. M. Perrine,  F. Plasser,  P. Pokhilko,  
 S. Prager,  A. Prociuk,  E. Ramos,  D. R. Rehn,  F. Rob,  M. Scheurer,  
 M. Schneider,  N. Sergueev,  S. M. Sharada,  S. Sharma,  D. W. Small,  
 T. Stauch,  T. Stein,  Yu-Chuan Su,  A. J. W. Thom,  A. Tkatchenko,  
 T. Tsuchimochi,  N. M. Tubman,  L. Vogt,  M. L. Vidal,  O. Vydrov,  
 M. A. Watson,  J. Wenzel,  M. de Wergifosse,  T. A. Wesolowski,  A. White,  
 J. Witte,  A. Yamada,  Jun Yang,  K. Yao,  S. Yeganeh,  S. R. Yost,  
 Zhi-Qiang You,  A. Zech,  Igor Ying Zhang,  Xing Zhang,  Yan Zhao,  
 Ying Zhu,  B. R. Brooks,  G. K. L. Chan,  C. J. Cramer,  M. S. Gordon,  
 W. J. Hehre,  A. Klamt,  M. W. Schmidt,  C. D. Sherrill,  D. G. Truhlar,  
 A. Aspuru-Guzik,  R. Baer,  A. T. Bell,  N. A. Besley,  Jeng-Da Chai,  
 A. E. DePrince, III,  R. A. DiStasio Jr.,  A. Dreuw,  B. D. Dunietz,  
 T. R. Furlani,  Chao-Ping Hsu,  Yousung Jung,  Jing Kong,  D. S. Lambrecht,  
 WanZhen Liang,  C. Ochsenfeld,  V. A. Rassolov,  L. V. Slipchenko,  
 J. E. Subotnik,  T. Van Voorhis,  J. M. Herbert,  A. I. Krylov,  
 P. M. W. Gill,  M. Head-Gordon

 Contributors to earlier versions of Q-Chem not listed above: 
 R. D. Adamson,  B. Austin,  J. Baker,  G. J. O. Beran,  K. Brandhorst,  
 S. T. Brown,  E. F. C. Byrd,  A. K. Chakraborty,  C.-L. Cheng,  
 Siu Hung Chien,  D. M. Chipman,  D. L. Crittenden,  H. Dachsel,  
 R. J. Doerksen,  A. D. Dutoi,  L. Fusti-Molnar,  W. A. Goddard III,  
 A. Golubeva-Zadorozhnaya,  S. R. Gwaltney,  G. Hawkins,  A. Heyden,  
 S. Hirata,  G. Kedziora,  F. J. Keil,  C. Kelley,  Jihan Kim,  R. A. King,  
 R. Z. Khaliullin,  P. P. Korambath,  W. Kurlancheek,  A. M. Lee,  M. S. Lee,  
 S. V. Levchenko,  Ching Yeh Lin,  D. Liotard,  R. C. Lochan,  I. Lotan,  
 P. E. Maslen,  N. Nair,  D. P. O'Neill,  D. Neuhauser,  E. Neuscamman,  
 C. M. Oana,  R. Olson,  B. Peters,  R. Peverati,  P. A. Pieniazek,  
 Y. M. Rhee,  J. Ritchie,  M. A. Rohrdanz,  E. Rosta,  N. J. Russ,  
 H. F. Schaefer III,  N. E. Schultz,  N. Shenvi,  A. C. Simmonett,  A. Sodt,  
 D. Stuck,  K. S. Thanthiriwatte,  V. Vanovschi,  Tao Wang,  A. Warshel,  
 C. F. Williams,  Q. Wu,  X. Xu,  W. Zhang

 Please cite Q-Chem as follows:
 Y. Shao et al., Mol. Phys. 113, 184-215 (2015)
 DOI: 10.1080/00268976.2014.952696

 Q-Chem 5.2.1 for Intel X86 EM64T Linux

 Parts of Q-Chem use Armadillo 8.300.2 (Tropical Shenanigans).
 http://arma.sourceforge.net/

 Q-Chem begins on Mon Feb  7 14:51:21 2022  

Host: 
0

     Scratch files written to /gpfs/fs0/scratch/a/aspuru/rhickman/descriptor_computation/qchem86970//
 Jul1719 |scratch|qcdevops|jenkins|workspace|build_RNUM -1
Processing $rem in /scinet/niagara/software/commercial/qc52/config/preferences:
	 MEM_TOTAL  4000 
NAlpha2: 222
NElect   222
Mult     1

Checking the input file for inconsistencies... 	...done.

--------------------------------------------------------------
User input:
--------------------------------------------------------------
$molecule
0 1
C         4.29821518340000   -1.77792527230000   -1.87059486200000
O         3.36707353590000   -2.48625887720000   -1.06495681760000
C         2.09881852940000   -2.06342073120000   -1.13218417800000
C         1.20342782820000   -2.87386177750000   -0.26380169840000
C         0.20141744940000   -2.26106494850000    0.50358429740000
N         0.11895168390000   -0.86747910900000    0.60499514550000
C         1.28420603280000   -0.11316532410000    0.71477099270000
C         1.37806693170000    1.14165349250000    0.11190185820000
C         2.55439140210000    1.86062639750000    0.21383294180000
C         2.68668045290000    3.20318769310000   -0.44528760480000
F         1.55042723310000    3.65082464670000   -0.99232914550000
F         3.08639634690000    4.15394197710000    0.42337670710000
F         3.60842806260000    3.19675607030000   -1.42732038900000
C         3.65423860180000    1.35751519730000    0.90007088220000
C         3.55503543660000    0.11389319690000    1.49918147330000
C         2.38425327910000   -0.61420542560000    1.41500888720000
C        -1.13320038790000   -0.24674352670000    0.55486892490000
C        -1.39527886180000    0.89050557360000    1.31972135000000
C        -2.63433065500000    1.48959115950000    1.27018260650000
C        -3.65784028320000    0.97566792630000    0.46862292230000
C        -4.93999099370000    1.65635924850000    0.47216809270000
C        -6.05622341400000    1.31718305700000   -0.15709379990000
F        -6.26758836000000    0.26619654970000   -0.94149114590000
F        -7.18168444210000    2.02533469070000   -0.07415836330000
C        -3.38762674990000   -0.16455460140000   -0.29275779080000
C        -2.14722704130000   -0.76324660070000   -0.25187652750000
C        -0.69503828070000   -3.06381887340000    1.20853907330000
C        -0.59149880630000   -4.43989814260000    1.16286081500000
C         0.42076012460000   -5.04299739390000    0.43139946780000
C         1.31376082000000   -4.25966681090000   -0.27546068470000
O         1.73601027350000   -1.15631054430000   -1.83843130130000
H         5.25691416710000   -2.27033940380000   -1.73157232930000
H         4.35202075740000   -0.73415110580000   -1.55296775340000
H         3.99527581270000   -1.80989746690000   -2.91888545770000
H         0.54632167470000    1.53218550580000   -0.45241418700000
H         4.56423522930000    1.93354516870000    0.95925330650000
H         4.39669163990000   -0.28998006970000    2.04025663220000
H         2.31625863990000   -1.58169889820000    1.89025479080000
H        -0.62336818260000    1.29660828800000    1.95642608010000
H        -2.82058634500000    2.36777444690000    1.87036922390000
H        -5.00571891040000    2.55733814520000    1.06505326800000
H        -4.14513554740000   -0.58360437990000   -0.93392688260000
H        -1.94838100070000   -1.63342108010000   -0.85875489690000
H        -1.46798641950000   -2.59321867650000    1.79770480320000
H        -1.29495147090000   -5.04532156360000    1.71415357110000
H         0.50890509120000   -6.11790848100000    0.40900136670000
H         2.09589794560000   -4.71439811420000   -0.86347213640000
$end

$rem
BASIS = 6-31G*
GUI = 2
METHOD = B3LYP
PRINT_ORBITALS false
MOLDEN_FORMAT false
--------------------------------------------------------------
 ----------------------------------------------------------------
             Standard Nuclear Orientation (Angstroms)
    I     Atom           X                Y                Z
 ----------------------------------------------------------------
    1      C       4.5197751969     1.1440989426     1.7067205149
    2      O       3.6387924348     1.9813871622     0.9714438783
    3      C       2.3348418726     1.7046595242     1.0935795524
    4      C       1.4981058331     2.6413527692     0.2966442395
    5      C       0.3951902045     2.1738066312    -0.4337007096
    6      N       0.1464713894     0.8031000285    -0.5695999916
    7      C       1.2093733412    -0.0756383882    -0.7617352465
    8      C       1.1863024082    -1.3526572693    -0.2000219447
    9      C       2.2646779627    -2.1978428614    -0.3839206180
   10      C       2.2722968296    -3.5682865505     0.2294611294
   11      F       1.1199882687    -3.9010301513     0.8229013924
   12      F       2.5156621364    -4.5285901891    -0.6853472879
   13      F       3.2356808278    -3.7008363868     1.1613249734
   14      C       3.3804776325    -1.8011312836    -1.1128364391
   15      C       3.3971326409    -0.5347440782    -1.6708297230
   16      C       2.3244428968     0.3194686108    -1.5046945872
   17      C      -1.1653400600     0.3286276837    -0.4709246285
   18      C      -1.5950504507    -0.7445029367    -1.2524356819
   19      C      -2.8913795167    -1.1989620265    -1.1544312895
   20      C      -3.8076097982    -0.5985883592    -0.2859495645
   21      C      -5.1587840392    -1.1273289540    -0.2409468663
   22      C      -6.1957672783    -0.6839815096     0.4555404916
   23      F      -6.2447805494     0.3571050581     1.2791079953
   24      F      -7.3985955048    -1.2552528922     0.4122644736
   25      C      -3.3696544340     0.4766796824     0.4917503096
   26      C      -2.0716085567     0.9303000280     0.4023058715
   27      C      -0.4354652939     3.0974496902    -1.0676588458
   28      C      -0.1706138445     4.4502492430    -0.9889939804
   29      C       0.9395764198     4.9082105556    -0.2953214598
   30      C       1.7691550251     4.0041830038     0.3412646246
   31      O       1.9042324629     0.8216924386     1.7922986540
   32      H       5.5211997240     1.5278168259     1.5311865143
   33      H       4.4362614944     0.1124077489     1.3575998009
   34      H       4.2744806850     1.1750254481     2.7700087215
   35      H       0.3435530028    -1.6641914498     0.3962061316
   36      H       4.2133631712    -2.4753231747    -1.2360189169
   37      H       4.2524059813    -0.2118880736    -2.2440073754
   38      H       2.3460583592     1.3039307384    -1.9484204602
   39      H      -0.9077801721    -1.2145810996    -1.9400725843
   40      H      -3.2076794431    -2.0291563950    -1.7683145936
   41      H      -5.3578091813    -1.9942170907    -0.8545346055
   42      H      -4.0409141408     0.9578101149     1.1834467838
   43      H      -1.7434206560     1.7508731293     1.0219809596
   44      H      -1.2858690646     2.7387856571    -1.6281971281
   45      H      -0.8251869203     5.1506465063    -1.4852647078
   46      H       1.1530179469     5.9645544242    -0.2475155922
   47      H       2.6267737463     4.3460778508     0.8997219206
 ----------------------------------------------------------------
 Molecular Point Group                 C1    NOp =  1
 Largest Abelian Subgroup              C1    NOp =  1
 Nuclear Repulsion Energy =        3074.96875856 hartrees
 There are      111 alpha and      111 beta electrons
 Requested basis set is 6-31G(d)
 There are 156 shells and 497 basis functions

 Total QAlloc Memory Limit   4000 MB
 Mega-Array Size       188 MB
 MEM_STATIC part       192 MB
 A cutoff of  1.0D-08 yielded   5207 shell pairs
 There are     55508 function pairs
 Smallest overlap matrix eigenvalue = 3.26E-04

 Scale SEOQF with 1.000000e-02/1.000000e-02/1.000000e-01

 Standard Electronic Orientation quadrupole field applied
 Nucleus-field energy     =    -0.0000000055 hartrees
 Guess from superposition of atomic densities
 Warning:  Energy on first SCF cycle will be non-variational
 SAD guess density has 222.000000 electrons

 -----------------------------------------------------------------------
  General SCF calculation program by
  Eric Jon Sundstrom, Paul Horn, Yuezhi Mao, Dmitri Zuev, Alec White,
  David Stuck, Shaama M.S., Shane Yost, Joonho Lee, David Small,
  Daniel Levine, Susi Lehtola, Hugh Burton, Evgeny Epifanovsky,
  Bang C. Huynh
 -----------------------------------------------------------------------
 Exchange:     0.2000 Hartree-Fock + 0.0800 Slater + 0.7200 B88
 Correlation:  0.1900 VWN1RPA + 0.8100 LYP
 Using SG-1 standard quadrature grid
 A restricted SCF calculation will be
 performed using DIIS
 SCF converges when DIIS error is below 1.0e-05
 ---------------------------------------
  Cycle       Energy         DIIS error
 ---------------------------------------
    1   -1597.9473764962      3.64e-02  
    2   -1589.9765913290      4.18e-03  
    3   -1589.4108454233      6.37e-03  
    4   -1590.4136804911      1.38e-03  
    5   -1590.4606693547      4.80e-04  
    6   -1590.4659156675      1.76e-04  
    7   -1590.4667613615      5.02e-05  
    8   -1590.4668266623      2.17e-05  
    9   -1590.4668405292      6.49e-06  Convergence criterion met
 ---------------------------------------
 SCF time:   CPU 203.88s  wall 204.00s 
 SCF   energy in the final basis set =    -1590.4668405292
 Total energy in the final basis set =    -1590.4668405292
 
 --------------------------------------------------------------
 
                    Orbital Energies (a.u.)
 --------------------------------------------------------------
 
 Alpha MOs
 -- Occupied --
-24.7433 -24.7326 -24.7193 -24.7117 -24.7110 -19.1963 -19.1348 -14.3781
-10.4228 -10.3547 -10.3163 -10.2442 -10.2393 -10.2391 -10.2334 -10.2113
-10.2088 -10.2050 -10.2035 -10.2026 -10.2024 -10.2009 -10.1987 -10.1983
-10.1980 -10.1969 -10.1963 -10.1947 -10.1920 -10.1917 -10.1907  -1.2985
 -1.2840  -1.2232  -1.2093  -1.2026  -1.1126  -1.0208  -0.9919  -0.8784
 -0.8751  -0.8593  -0.8093  -0.7873  -0.7827  -0.7762  -0.7559  -0.7535
 -0.7319  -0.7185  -0.6932  -0.6565  -0.6494  -0.6340  -0.6256  -0.6185
 -0.6174  -0.5939  -0.5825  -0.5723  -0.5716  -0.5709  -0.5592  -0.5482
 -0.5346  -0.5231  -0.5177  -0.5068  -0.5035  -0.4941  -0.4812  -0.4787
 -0.4741  -0.4692  -0.4614  -0.4537  -0.4521  -0.4495  -0.4453  -0.4430
 -0.4417  -0.4397  -0.4310  -0.4270  -0.4227  -0.4127  -0.4107  -0.4059
 -0.4044  -0.4004  -0.3910  -0.3876  -0.3870  -0.3836  -0.3785  -0.3716
 -0.3690  -0.3644  -0.3576  -0.3549  -0.3488  -0.3320  -0.3065  -0.2966
 -0.2804  -0.2703  -0.2673  -0.2610  -0.2575  -0.2378  -0.1887
 -- Virtual --
 -0.0457  -0.0330  -0.0240  -0.0117  -0.0022   0.0096   0.0431   0.0679
  0.0855   0.0907   0.0986   0.1138   0.1192   0.1275   0.1348   0.1406
  0.1420   0.1503   0.1537   0.1569   0.1579   0.1584   0.1595   0.1720
  0.1738   0.1792   0.1810   0.1841   0.1868   0.1888   0.2035   0.2128
  0.2314   0.2428   0.2455   0.2533   0.2659   0.2755   0.2810   0.2879
  0.2931   0.2985   0.3060   0.3154   0.3223   0.3320   0.3488   0.3669
  0.3710   0.3876   0.3920   0.4081   0.4189   0.4218   0.4433   0.4696
  0.4783   0.4809   0.4845   0.4973   0.5037   0.5061   0.5117   0.5151
  0.5189   0.5331   0.5345   0.5371   0.5391   0.5470   0.5561   0.5619
  0.5636   0.5674   0.5726   0.5756   0.5794   0.5833   0.5866   0.5892
  0.5915   0.5920   0.5976   0.6005   0.6033   0.6046   0.6077   0.6087
  0.6189   0.6260   0.6264   0.6401   0.6492   0.6528   0.6556   0.6598
  0.6655   0.6855   0.6875   0.6926   0.7100   0.7234   0.7275   0.7321
  0.7360   0.7783   0.7792   0.7954   0.8061   0.8070   0.8081   0.8162
  0.8250   0.8295   0.8352   0.8373   0.8401   0.8449   0.8465   0.8515
  0.8585   0.8684   0.8702   0.8781   0.8824   0.8860   0.8919   0.8988
  0.9119   0.9222   0.9400   0.9424   0.9612   0.9707   0.9751   0.9861
  0.9899   0.9986   1.0049   1.0115   1.0228   1.0289   1.0330   1.0516
  1.0719   1.0755   1.0815   1.0891   1.0939   1.1036   1.1158   1.1222
  1.1425   1.1452   1.1514   1.1554   1.1610   1.1657   1.1701   1.1751
  1.1794   1.1922   1.2035   1.2130   1.2156   1.2203   1.2286   1.2302
  1.2553   1.2601   1.2704   1.2807   1.2876   1.3057   1.3149   1.3348
  1.3379   1.3421   1.3476   1.3523   1.3596   1.3704   1.3808   1.3899
  1.3946   1.4032   1.4045   1.4174   1.4298   1.4364   1.4439   1.4463
  1.4538   1.4593   1.4653   1.4690   1.4703   1.4744   1.4854   1.4887
  1.4936   1.5008   1.5083   1.5125   1.5211   1.5391   1.5493   1.5942
  1.6156   1.6343   1.6493   1.6603   1.6656   1.6833   1.6954   1.7068
  1.7209   1.7283   1.7433   1.7449   1.7629   1.7701   1.7810   1.7849
  1.7851   1.7988   1.8044   1.8125   1.8212   1.8345   1.8378   1.8429
  1.8535   1.8570   1.8624   1.8695   1.8745   1.8869   1.8969   1.9038
  1.9119   1.9154   1.9348   1.9404   1.9513   1.9591   1.9683   1.9761
  1.9816   1.9858   1.9922   1.9975   2.0070   2.0134   2.0172   2.0214
  2.0270   2.0338   2.0377   2.0423   2.0494   2.0654   2.0733   2.0786
  2.0876   2.1027   2.1037   2.1072   2.1147   2.1240   2.1378   2.1390
  2.1485   2.1533   2.1609   2.1623   2.1654   2.1811   2.1923   2.2017
  2.2197   2.2337   2.2423   2.2619   2.2761   2.2861   2.2926   2.2947
  2.3015   2.3052   2.3106   2.3224   2.3296   2.3356   2.3368   2.3568
  2.3618   2.4055   2.4228   2.4310   2.4571   2.4672   2.4693   2.4976
  2.5242   2.5338   2.5517   2.5743   2.5859   2.6016   2.6078   2.6300
  2.6329   2.6434   2.6472   2.6543   2.6655   2.6814   2.6908   2.6932
  2.6991   2.7222   2.7350   2.7477   2.7618   2.7729   2.7812   2.7926
  2.8009   2.8112   2.8293   2.8378   2.8651   2.8879   2.9056   2.9243
  2.9330   2.9461   2.9724   3.0036   3.0201   3.0418   3.0518   3.0543
  3.0698   3.1217   3.1353   3.1536   3.1586   3.2407   3.3094   3.3308
  3.4409   3.4738   3.4847   4.0190   4.0785   4.0940   4.0978   4.1121
  4.1156   4.1308   4.1495   4.1668   4.1852   4.2121   4.2513   4.2686
  4.2871   4.3205   4.3407   4.3427   4.3580   4.3918   4.4381   4.4591
  4.5052   4.5312   4.5833   4.7142   4.7549   4.7743   4.8163   4.8335
  5.2873   5.6656
 --------------------------------------------------------------
 
          Ground-State Mulliken Net Atomic Charges

     Atom                 Charge (a.u.)
  ----------------------------------------
      1 C                    -0.224582
      2 O                    -0.440592
      3 C                     0.546200
      4 C                     0.062364
      5 C                     0.258260
      6 N                    -0.649635
      7 C                     0.278845
      8 C                    -0.187186
      9 C                    -0.011715
     10 C                     0.775198
     11 F                    -0.263292
     12 F                    -0.271560
     13 F                    -0.265733
     14 C                    -0.168077
     15 C                    -0.136307
     16 C                    -0.170515
     17 C                     0.296054
     18 C                    -0.173461
     19 C                    -0.204582
     20 C                     0.200717
     21 C                    -0.299600
     22 C                     0.540854
     23 F                    -0.236161
     24 F                    -0.249025
     25 C                    -0.205871
     26 C                    -0.169034
     27 C                    -0.166755
     28 C                    -0.129338
     29 C                    -0.132752
     30 C                    -0.169490
     31 O                    -0.475800
     32 H                     0.163039
     33 H                     0.177698
     34 H                     0.171028
     35 H                     0.174597
     36 H                     0.147929
     37 H                     0.139557
     38 H                     0.153339
     39 H                     0.148690
     40 H                     0.133129
     41 H                     0.159365
     42 H                     0.143024
     43 H                     0.153785
     44 H                     0.153443
     45 H                     0.138961
     46 H                     0.134486
     47 H                     0.150500
  ----------------------------------------
  Sum of atomic charges =     0.000000

 -----------------------------------------------------------------
                    Cartesian Multipole Moments
 -----------------------------------------------------------------
    Charge (ESU x 10^10)
                 0.0000
    Dipole Moment (Debye)
         X       1.4694      Y       3.4640      Z      -2.1201
       Tot       4.3189
    Quadrupole Moments (Debye-Ang)
        XX    -164.2506     XY       7.6939     YY    -168.1654
        XZ       3.1810     YZ       3.3972     ZZ    -171.0071
    Octopole Moments (Debye-Ang^2)
       XXX     126.8762    XXY     -12.3168    XYY     -34.8218
       YYY      25.7446    XXZ       3.2872    XYZ       8.1929
       YYZ       0.7157    XZZ      -2.4873    YZZ     -24.1681
       ZZZ      37.0132
    Hexadecapole Moments (Debye-Ang^3)
      XXXX  -10502.5535   XXXY     -85.5290   XXYY   -2683.4891
      XYYY      52.3170   YYYY   -5619.7200   XXXZ     128.8295
      XXYZ      90.2509   XYYZ      42.6024   YYYZ     -38.8999
      XXZZ   -1823.8048   XYZZ      -8.1711   YYZZ   -1153.9678
      XZZZ     -19.1187   YZZZ     -11.0235   ZZZZ   -1132.4017
 -----------------------------------------------------------------
Archival summary:
1\1\nia1977.scinet.local\SP\ProcedureUnspecified\6-31G*\5212316\rhickman\MonFeb714:54:462022MonFeb714:54:462022\0\\#,ProcedureUnspecified,6-31G*,\\0,1\N\C,1,1.39243\C,2,1.39529,1,120.625\H,3,1.07832,2,119.996,1,-0.513701,0\C,3,1.38241,2,119.545,1,-178.784,0\C,5,1.39058,3,121.415,2,0.35612,0\H,6,1.07861,5,120.076,3,179.498,0\C,6,1.38397,5,118.819,3,-0.514818,0\H,8,1.07901,6,119.835,5,-179.678,0\C,8,1.38128,6,120.533,5,0.0682993,0\H,10,1.08006,8,119.916,6,-179.713,0\C,1,1.39847,2,120.775,3,-33.7016,0\C,12,1.39494,1,120.481,2,143.468,0\H,13,1.07937,12,119.325,1,-1.60894,0\C,13,1.37793,12,120.708,1,179.23,0\H,15,1.07727,13,118.792,12,179.405,0\C,12,1.39536,1,120.683,2,-37.1881,0\H,17,1.07989,12,119.698,1,0.0602567,0\C,17,1.37717,12,120.252,1,-179.575,0\H,19,1.07987,17,119.272,12,179.865,0\C,15,1.39743,13,120.825,12,0.216713,0\C,1,1.3997,2,119.72,3,144.39,0\C,22,1.39464,1,119.907,2,138.371,0\H,23,1.07983,22,119.016,1,2.24756,0\C,23,1.38072,22,120.58,1,-177.288,0\H,25,1.07949,23,119.551,22,-179.937,0\C,25,1.38688,23,120.37,22,1.05824,0\H,27,1.07875,25,120.259,23,179.077,0\C,27,1.38228,25,119.657,23,-1.24519,0\H,29,1.07902,27,120.54,25,-178.901,0\C,29,1.39024,27,120.619,25,-0.240112,0\C,21,1.45164,15,123.692,13,179.951,0\H,32,1.08055,21,116.491,15,-176.939,0\C,32,1.32551,21,128.509,15,3.29335,0\F,34,1.32835,32,128.081,21,0.192045,0\F,34,1.3323,32,123.08,21,179.807,0\C,31,1.48749,29,119.369,27,-174.388,0\O,37,1.20551,31,124.808,29,133.119,0\O,37,1.33857,31,111.648,29,-45.2192,0\C,39,1.4205,37,115.79,31,179.536,0\H,40,1.08669,39,106.247,37,-177.645,0\H,40,1.09165,39,110.372,37,-57.5136,0\H,40,1.09236,39,110.112,37,62.5187,0\C,5,1.50147,3,120.507,2,179.004,0\F,44,1.33817,5,113.813,3,6.16601,0\F,44,1.34687,5,112.092,3,-114.825,0\F,44,1.34844,5,111.949,3,126.621,0\\\@

 Total job time:  204.98s(wall), 204.46s(cpu) 
 Mon Feb  7 14:54:46 2022

        *************************************************************
        *                                                           *
        *  Thank you very much for using Q-Chem.  Have a nice day.  *
        *                                                           *
        *************************************************************


