28
 energy: -40.900013802759 gnorm: 0.000036148694 xtb: 6.4.1 (23d549d)
C         2.40636671930000   -2.93072549120000   -0.08850738530000
C         2.37911229330000   -1.60909845130000    0.04654775230000
C         1.20386467560000   -0.75188115740000    0.02376247010000
C        -0.09334431430000   -1.25790302370000    0.03206071410000
C        -1.21642415950000   -0.44600942170000    0.01582942460000
O        -2.48932164730000   -0.94180601950000    0.02542120900000
C        -2.67873644070000   -2.33411445450000    0.04600236970000
C        -1.05339995730000    0.95384517170000   -0.00883131190000
C        -2.13499310570000    1.92649517970000   -0.02709676260000
C        -3.44654574830000    1.71103822000000   -0.02667290420000
C         0.24993572550000    1.45788157140000   -0.01403159220000
C         1.36977318600000    0.64626394450000    0.00318893610000
O         2.65520982140000    1.11376814760000   -0.00430664250000
C         2.86830687200000    2.50190008830000   -0.02107292830000
H         3.33529274800000   -3.47361184090000   -0.05614639590000
H         1.52272852620000   -3.52657856150000   -0.24273111740000
H         3.30922175880000   -1.07406522720000    0.17771508260000
H        -0.20969528750000   -2.32781653800000    0.06155187870000
H        -3.75826010590000   -2.48162214340000    0.04667456080000
H        -2.25478719100000   -2.78830879260000    0.94775889070000
H        -2.25216841210000   -2.81455256070000   -0.84080589480000
H        -1.78722379760000    2.95398996510000   -0.04336671720000
H        -3.87274817910000    0.72666654350000   -0.01146621160000
H        -4.13668529280000    2.53883227370000   -0.04184682380000
H         0.36387082280000    2.53086319220000   -0.03172463350000
H         2.44626937550000    2.98705397480000    0.86543083560000
H         2.45193407870000    2.96403699710000   -0.92236945190000
H         3.94980797720000    2.63208007950000   -0.01955678000000
