
Running Job 1 of 1 tidas/B053/conf-1/spe_input.inp
qchem tidas/B053/conf-1/spe_input.inp_134488.0 /home/a/aspuru/seifridm/acdc_laser/descriptor_computation/qchem134488/ 0
/gpfs/fs1/scinet/niagara/software/commercial/qc54/exe/qcprog.exe_s tidas/B053/conf-1/spe_input.inp_134488.0 /home/a/aspuru/seifridm/acdc_laser/descriptor_computation/qchem134488/
                  Welcome to Q-Chem
     A Quantum Leap Into The Future Of Chemistry


 Q-Chem 5.4, Q-Chem, Inc., Pleasanton, CA (2021)

 License issued to: SRG Alan Aspuru-Guzik, University of Toronto

 E. Epifanovsky,  A. T. B. Gilbert,  Xintian Feng,  Joonho Lee,  Yuezhi Mao,  
 N. Mardirossian,  P. Pokhilko,  A. White,  M. Wormit,  M. P. Coons,  
 A. L. Dempwolff,  Zhengting Gan,  D. Hait,  P. R. Horn,  L. D. Jacobson,  
 I. Kaliman,  J. Kussmann,  A. W. Lange,  Ka Un Lao,  D. S. Levine,  Jie Liu,  
 S. C. McKenzie,  A. F. Morrison,  K. Nanda,  F. Plasser,  D. R. Rehn,  
 M. L. Vidal,  Zhi-Qiang You,  Ying Zhu,  B. Alam,  B. Albrecht,  
 A. Aldossary,  E. Alguire,  J. H. Andersen,  D. Barton,  K. Begam,  A. Behn,  
 Y. A. Bernard,  E. J. Berquist,  H. Burton,  A. Carreras,  K. Carter-Fenk,  
 Romit Chakraborty,  A. D. Chien,  K. D. Closser,  V. Cofer-Shabica,  
 S. Dasgupta,  Jia Deng,  M. de Wergifosse,  M. Diedenhofen,  Hainam Do,  
 S. Ehlert,  Po-Tung Fang,  S. Fatehi,  Qingguo Feng,  T. Friedhoff,  
 J. Gayvert,  Qinghui Ge,  G. Gidofalvi,  M. Goldey,  J. Gomes,  
 C. Gonzalez-Espinoza,  S. Gulania,  A. Gunina,  M. W. D. Hanson-Heine,  
 P. H. P. Harbach,  A. W. Hauser,  M. F. Herbst,  M. Hernandez Vera,  
 M. Hodecker,  Z. C. Holden,  S. Houck,  Xunkun Huang,  Kerwin Hui,  
 B. C. Huynh,  M. Ivanov,  Hyunjun Ji,  Hanjie Jiang,  B. Kaduk,  S. Kaehler,  
 K. Khistyaev,  Jaehoon Kim,  P. Klunzinger,  Z. Koczor-Benda,  
 Joong Hoon Koh,  D. Kosenkov,  L. Koulias,  T. Kowalczyk,  C. M. Krauter,  
 K. Kue,  A. Kunitsa,  T. Kus,  A. Landau,  K. V. Lawler,  D. Lefrancois,  
 S. Lehtola,  Rain Li,  Yi-Pei Li,  Jiashu Liang,  M. Liebenthal,  
 Hung-Hsuan Lin,  You-Sheng Lin,  Fenglai Liu,  Kuan-Yu Liu,  
 M. Loipersberger,  A. Luenser,  A. Manjanath,  P. Manohar,  E. Mansoor,  
 S. F. Manzer,  Shan-Ping Mao,  A. V. Marenich,  T. Markovich,  S. Mason,  
 S. A. Maurer,  P. F. McLaughlin,  M. F. S. J. Menger,  J.-M. Mewes,  
 S. A. Mewes,  P. Morgante,  J. W. Mullinax,  K. J. Oosterbaan,  G. Paran,  
 Alexander C. Paul,  Suranjan K. Paul,  F. Pavosevic,  Zheng Pei,  S. Prager,  
 E. I. Proynov,  E. Ramos,  B. Rana,  A. E. Rask,  A. Rettig,  R. M. Richard,  
 F. Rob,  E. Rossomme,  T. Scheele,  M. Scheurer,  M. Schneider,  
 N. Sergueev,  S. M. Sharada,  W. Skomorowski,  D. W. Small,  C. J. Stein,  
 Yu-Chuan Su,  E. J. Sundstrom,  Zhen Tao,  J. Thirman,  T. Tsuchimochi,  
 N. M. Tubman,  S. P. Veccham,  O. Vydrov,  J. Wenzel,  J. Witte,  A. Yamada,  
 Kun Yao,  S. Yeganeh,  S. R. Yost,  A. Zech,  Igor Ying Zhang,  Xing Zhang,  
 Yu Zhang,  D. Zuev,  A. Aspuru-Guzik,  A. T. Bell,  N. A. Besley,  
 K. B. Bravaya,  B. R. Brooks,  D. Casanova,  Jeng-Da Chai,  S. Coriani,  
 C. J. Cramer,  A. E. DePrince, III,  R. A. DiStasio Jr.,  A. Dreuw,  
 B. D. Dunietz,  T. R. Furlani,  W. A. Goddard III,  S. Grimme,  
 S. Hammes-Schiffer,  T. Head-Gordon,  W. J. Hehre,  Chao-Ping Hsu,  
 T.-C. Jagau,  Yousung Jung,  A. Klamt,  Jing Kong,  D. S. Lambrecht,  
 WanZhen Liang,  N. J. Mayhall,  C. W. McCurdy,  J. B. Neaton,  T. Neudecker,  
 C. Ochsenfeld,  J. A. Parkhill,  R. Peverati,  V. A. Rassolov,  Yihan Shao,  
 L. V. Slipchenko,  R. P. Steele,  J. E. Subotnik,  A. J. W. Thom,  
 A. Tkatchenko,  D. G. Truhlar,  T. Van Voorhis,  T. A. Wesolowski,  
 K. B. Whaley,  H. L. Woodcock III,  P. M. Zimmerman,  S. Faraji,  
 P. M. W. Gill,  M. Head-Gordon,  J. M. Herbert,  A. I. Krylov

 Additional authors since Version 5.4.0: 
 Chandrima Chakravarty,  L. Cunha,  R. Kang,  Yongbin Kim,  S. Kotaru,  
 Shaozhi Li,  Xiangyuan Li,  F. Matz,  A. Molle,  V. Parravicini,  
 Haisheng Ren,  Hengyuan Shen,  Yingli Su,  Hung-Yi Tsai,  C. Utku,  
 Fang Wang,  Jeff Yang,  F. Zeller

 Contributors to earlier versions of Q-Chem not listed above: 
 R. D. Adamson,  B. Austin,  R. Baer,  J. Baker,  G. J. O. Beran,  
 K. Brandhorst,  S. T. Brown,  E. F. C. Byrd,  Arup K. Chakraborty,  
 G. K. L. Chan,  Chun-Min Chang,  Yunqing Chen,  C.-L. Cheng,  
 Siu Hung Chien,  D. M. Chipman,  D. L. Crittenden,  H. Dachsel,  
 R. J. Doerksen,  A. D. Dutoi,  R. G. Edgar,  J. Fosso-Tande,  
 L. Fusti-Molnar,  D. Ghosh,  A. Ghysels,  A. Golubeva-Zadorozhnaya,  
 J. Gonthier,  M. S. Gordon,  S. R. Gwaltney,  G. Hawkins,  J. E. Herr,  
 A. Heyden,  S. Hirata,  E. G. Hohenstein,  G. Kedziora,  F. J. Keil,  
 C. Kelley,  Jihan Kim,  R. A. King,  R. Z. Khaliullin,  P. P. Korambath,  
 W. Kurlancheek,  A. Laurent,  A. M. Lee,  M. S. Lee,  S. V. Levchenko,  
 Ching Yeh Lin,  D. Liotard,  E. Livshits,  R. C. Lochan,  I. Lotan,  
 L. A. Martinez-Martinez,  P. E. Maslen,  N. Nair,  D. P. O'Neill,  
 D. Neuhauser,  E. Neuscamman,  C. M. Oana,  R. Olivares-Amaya,  R. Olson,  
 T. M. Perrine,  B. Peters,  P. A. Pieniazek,  A. Prociuk,  Y. M. Rhee,  
 J. Ritchie,  M. A. Rohrdanz,  E. Rosta,  N. J. Russ,  H. F. Schaefer III,  
 M. W. Schmidt,  N. E. Schultz,  S. Sharma,  N. Shenvi,  C. D. Sherrill,  
 A. C. Simmonett,  A. Sodt,  T. Stein,  D. Stuck,  K. S. Thanthiriwatte,  
 V. Vanovschi,  L. Vogt,  Tao Wang,  A. Warshel,  M. A. Watson,  
 C. F. Williams,  Q. Wu,  X. Xu,  Jun Yang,  W. Zhang,  Yan Zhao

   Please cite Q-Chem as follows:
  "Software for the frontiers of quantum chemistry:
   An overview of developments in the Q-Chem 5 package"
   J. Chem. Phys. 155, 084801 (2021)
   https://doi.org/10.1063/5.0055522 (open access)

 Q-Chem 5.4.2 for Intel X86 EM64T Linux

 Parts of Q-Chem use Armadillo 9.900.5 (Nocturnal Misbehaviour).
 http://arma.sourceforge.net/

 Q-Chem begins on Fri Aug 12 13:11:43 2022  

 Host: 
0

     Scratch files written to /home/a/aspuru/seifridm/acdc_laser/descriptor_computation/qchem134488//
 Dec1321 |scratch|qcdevops|jenkins|workspace|build_RNUM 6959   
 Processing $rem in /gpfs/fs1/scinet/niagara/software/commercial/qc54/config/preferences:
 Processing $rem in /home/a/aspuru/seifridm/.qchemrc:

 Checking the input file for inconsistencies... 	...done.

--------------------------------------------------------------
User input:
--------------------------------------------------------------
$molecule
0 1
C            1.00792896400000        3.72299792950000       -0.96243340430000
C            1.06732896800000        2.50084349530000       -0.44990750650000
C           -0.08010150880000        1.61797492040000       -0.25108555400000
C           -1.35283029080000        2.12828877110000       -0.01107805080000
C           -2.43141056740000        1.29576698440000        0.21623137170000
C           -2.28653816040000       -0.08457311990000        0.20329702650000
C           -3.43158965020000       -1.01979276930000        0.42672269850000
C           -1.01231843090000       -0.58460093790000       -0.03700522060000
F           -0.86108122710000       -1.92607978010000       -0.09938212850000
C            0.09768831050000        0.22380958900000       -0.25386205490000
C            1.40948262350000       -0.36969383730000       -0.53315317820000
C            1.95086658280000       -1.35210697590000        0.16639614780000
F            1.46098335920000       -1.91166418330000        1.26096947560000
F            3.13449359560000       -1.89125162260000       -0.11415092590000
H            1.89098408470000        4.32740926450000       -1.07754600680000
H            0.08461709730000        4.16056080820000       -1.30233548490000
H            2.02464418310000        2.09474785300000       -0.15072998050000
H           -1.49204970790000        3.19742511090000        0.02180986780000
H           -3.40557537160000        1.72019280220000        0.40795578120000
H           -4.32828062690000       -0.47259940990000        0.70324137560000
H           -3.18854822030000       -1.73193439340000        1.21370496590000
H           -3.63135618690000       -1.59114841540000       -0.47948677340000
H            1.97120275280000        0.00872379170000       -1.37326296510000
$end

$rem
BASIS = 6-31G*
GUI = 2
METHOD = B3LYP
PRINT_ORBITALS false
MOLDEN_FORMAT false
$end
--------------------------------------------------------------
 ----------------------------------------------------------------
             Standard Nuclear Orientation (Angstroms)
    I     Atom           X                Y                Z
 ----------------------------------------------------------------
    1      C       1.2834319357    -3.6909888696    -0.1441139331
    2      C       0.5021140188    -2.6543251027     0.1292780279
    3      C       0.9124225652    -1.2534512703     0.0601174104
    4      C       2.2325536236    -0.8740256344     0.2862867180
    5      C       2.6149290929     0.4530808797     0.2603095586
    6      C       1.6954199938     1.4588149085    -0.0033117516
    7      C       2.0722781139     2.9047280364    -0.0581836174
    8      C       0.3800696766     1.0703320914    -0.2276854389
    9      F      -0.5198377827     2.0316070299    -0.5317349612
   10      C      -0.0423169538    -0.2537101803    -0.1934651281
   11      C      -1.4408107478    -0.5978479881    -0.4706626128
   12      C      -2.4826423645     0.0090522196     0.0714263523
   13      F      -2.4582146614     0.9567327266     0.9947277954
   14      F      -3.7453467433    -0.3043901450    -0.2072994126
   15      H       0.9223684760    -4.7020317390    -0.0681151589
   16      H       2.3029833913    -3.5734356996    -0.4699905693
   17      H      -0.5249751891    -2.8246644735     0.4241433222
   18      H       2.9656902672    -1.6327821807     0.5105975284
   19      H       3.6446836888     0.7183702493     0.4477118328
   20      H       3.1067033440     3.0454228975     0.2419950935
   21      H       1.4260934466     3.4877289310     0.5961184927
   22      H       1.9424892940     3.2878791763    -1.0700727500
   23      H      -1.6401377586    -1.3919882053    -1.1736020966
 ----------------------------------------------------------------
 Molecular Point Group                 C1    NOp =  1
 Largest Abelian Subgroup              C1    NOp =  1
 Nuclear Repulsion Energy =         870.86506798 hartrees
 There are       51 alpha and       51 beta electrons
 Requested basis set is 6-31G(d)
 There are 74 shells and 228 basis functions

 Total QAlloc Memory Limit   8000 MB
 Mega-Array Size       188 MB
 MEM_STATIC part       192 MB
 A cutoff of  1.0D-08 yielded   1825 shell pairs
 There are     18954 function pairs
 Smallest overlap matrix eigenvalue = 3.08E-04

 Scale SEOQF with 1.000000e-01/1.000000e-01/1.000000e+00

 Standard Electronic Orientation quadrupole field applied
 Nucleus-field energy     =     0.0000000188 hartrees
 Guess from superposition of atomic densities
 Warning:  Energy on first SCF cycle will be non-variational
 SAD guess density has 102.000000 electrons

 -----------------------------------------------------------------------
  General SCF calculation program by
  Eric Jon Sundstrom, Paul Horn, Yuezhi Mao, Dmitri Zuev, Alec White,
  David Stuck, Shaama M.S., Shane Yost, Joonho Lee, David Small,
  Daniel Levine, Susi Lehtola, Hugh Burton, Evgeny Epifanovsky,
  Bang C. Huynh
 -----------------------------------------------------------------------
 Exchange:     0.2000 Hartree-Fock + 0.0800 Slater + 0.7200 B88
 Correlation:  0.1900 VWN1RPA + 0.8100 LYP
 Using SG-1 standard quadrature grid
 A restricted SCF calculation will be
 performed using DIIS
 SCF converges when DIIS error is below 1.0e-05
 ---------------------------------------
  Cycle       Energy         DIIS error
 ---------------------------------------
    1    -727.1176450577      5.22e-02  
    2    -723.8369959729      5.89e-03  
    3    -723.6641943768      7.79e-03  
    4    -724.0465980286      1.53e-03  
    5    -724.0613020868      4.65e-04  
    6    -724.0622738735      2.56e-04  
    7    -724.0627178278      5.16e-05  
    8    -724.0627328985      2.08e-05  
    9    -724.0627358365      5.40e-06  Convergence criterion met
 ---------------------------------------
 SCF time:   CPU 57.08s  wall 61.00s 
 SCF   energy in the final basis set =     -724.0627358365
 Total energy in the final basis set =     -724.0627358365
 
 --------------------------------------------------------------
 
                    Orbital Energies (a.u.)
 --------------------------------------------------------------
 
 Alpha MOs
 -- Occupied --
-24.7374 -24.7336 -24.7065 -10.3566 -10.2674 -10.2087 -10.2017 -10.2014
-10.2011 -10.1940 -10.1926 -10.1884 -10.1856 -10.1849  -1.2827  -1.2228
 -1.2172  -0.8783  -0.8178  -0.7991  -0.7536  -0.7400  -0.6922  -0.6467
 -0.6205  -0.6078  -0.5754  -0.5673  -0.5357  -0.5176  -0.5158  -0.4954
 -0.4782  -0.4644  -0.4521  -0.4407  -0.4363  -0.4329  -0.4267  -0.4167
 -0.4111  -0.4032  -0.3938  -0.3729  -0.3621  -0.3620  -0.3397  -0.2931
 -0.2829  -0.2327  -0.2238
 -- Virtual --
 -0.0374  -0.0099   0.0441   0.0516   0.1031   0.1123   0.1143   0.1295
  0.1386   0.1482   0.1538   0.1680   0.1828   0.1911   0.2042   0.2068
  0.2204   0.2437   0.3029   0.3056   0.3318   0.3420   0.3797   0.3883
  0.4099   0.4156   0.4651   0.4966   0.5034   0.5068   0.5162   0.5222
  0.5370   0.5466   0.5498   0.5634   0.5718   0.5788   0.5871   0.6086
  0.6150   0.6302   0.6369   0.6488   0.6631   0.6834   0.6848   0.7080
  0.7132   0.7289   0.7637   0.7836   0.8095   0.8187   0.8345   0.8532
  0.8719   0.8795   0.8825   0.8872   0.9212   0.9260   0.9472   0.9539
  0.9605   0.9632   1.0012   1.0067   1.0434   1.0541   1.0830   1.0902
  1.1457   1.1602   1.1786   1.1844   1.2050   1.2182   1.2312   1.2539
  1.2652   1.2792   1.3004   1.3201   1.3498   1.3681   1.3833   1.4070
  1.4313   1.4379   1.4432   1.4713   1.4771   1.4918   1.5031   1.5430
  1.5612   1.6263   1.6641   1.6760   1.7194   1.7358   1.7608   1.7858
  1.7911   1.8093   1.8188   1.8360   1.8385   1.8488   1.8569   1.8718
  1.8863   1.8948   1.9305   1.9669   1.9743   1.9906   2.0036   2.0080
  2.0203   2.0390   2.0641   2.0785   2.1007   2.1396   2.1477   2.1947
  2.2105   2.2316   2.2393   2.2560   2.2841   2.2948   2.3103   2.3270
  2.3572   2.3594   2.3717   2.4072   2.4495   2.4729   2.5289   2.5453
  2.5676   2.5838   2.6282   2.6640   2.6690   2.6969   2.7350   2.7961
  2.8275   2.8667   2.8892   2.9665   3.0206   3.0369   3.1254   3.1381
  3.1850   3.3243   3.4724   4.0835   4.1005   4.1122   4.1263   4.1395
  4.2203   4.2593   4.3208   4.4241   4.4893   4.7333   4.7786   5.3023
  5.6745
 --------------------------------------------------------------
 
          Ground-State Mulliken Net Atomic Charges

     Atom                 Charge (a.u.)
  ----------------------------------------
      1 C                    -0.339504
      2 C                    -0.127608
      3 C                     0.117647
      4 C                    -0.189263
      5 C                    -0.179455
      6 C                     0.103123
      7 C                    -0.520975
      8 C                     0.267607
      9 F                    -0.290233
     10 C                     0.023529
     11 C                    -0.336120
     12 C                     0.579131
     13 F                    -0.231226
     14 F                    -0.246391
     15 H                     0.145988
     16 H                     0.145853
     17 H                     0.141637
     18 H                     0.130390
     19 H                     0.128711
     20 H                     0.155265
     21 H                     0.172829
     22 H                     0.172342
     23 H                     0.176725
  ----------------------------------------
  Sum of atomic charges =     0.000000

 -----------------------------------------------------------------
                    Cartesian Multipole Moments
 -----------------------------------------------------------------
    Charge (ESU x 10^10)
                 0.0000
    Dipole Moment (Debye)
         X       1.7443      Y      -0.7808      Z      -0.1533
       Tot       1.9172
    Quadrupole Moments (Debye-Ang)
        XX     -75.4319     XY       3.0046     YY     -72.9790
        XZ       0.7405     YZ       0.6126     ZZ     -79.8747
    Octopole Moments (Debye-Ang^2)
       XXX     -19.5013    XXY       7.1633    XYY      -8.1804
       YYY      10.3793    XXZ       2.3852    XYZ       0.9479
       YYZ       0.1786    XZZ     -22.0680    YZZ      11.0796
       ZZZ       0.6570
    Hexadecapole Moments (Debye-Ang^3)
      XXXX   -1761.1609   XXXY     -18.4503   XXYY    -542.9260
      XYYY     -13.8292   YYYY   -1559.5533   XXXZ       1.2321
      XXYZ       1.9880   XYYZ      -8.8581   YYYZ       6.2460
      XXZZ    -326.2743   XYZZ       2.1832   YYZZ    -309.5854
      XZZZ     -13.9376   YZZZ      -0.8716   ZZZZ    -143.2065
 -----------------------------------------------------------------
 Total job time:  64.46s(wall), 57.59s(cpu) 
 Fri Aug 12 13:12:47 2022

        *************************************************************
        *                                                           *
        *  Thank you very much for using Q-Chem.  Have a nice day.  *
        *                                                           *
        *************************************************************


