
Running Job 1 of 1 fragments/B027/conf-0/spe_input.inp
qchem fragments/B027/conf-0/spe_input.inp_250263.0 /gpfs/fs0/scratch/a/aspuru/rhickman/descriptor_computation/qchem250263/ 0
/scinet/niagara/software/commercial/qc52/exe/qcprog.exe_s fragments/B027/conf-0/spe_input.inp_250263.0 /gpfs/fs0/scratch/a/aspuru/rhickman/descriptor_computation/qchem250263/
                  Welcome to Q-Chem
     A Quantum Leap Into The Future Of Chemistry


 Q-Chem 5.2, Q-Chem, Inc., Pleasanton, CA (2019)

 License issued to: SRG Alan Aspuru-Guzik, University of Toronto

 Yihan Shao,  Zhengting Gan,  E. Epifanovsky,  A. T. B. Gilbert,  M. Wormit,  
 J. Kussmann,  A. W. Lange,  A. Behn,  Jia Deng,  Xintian Feng,  D. Ghosh,  
 M. Goldey,  P. R. Horn,  L. D. Jacobson,  I. Kaliman,  T. Kus,  A. Landau,  
 Jie Liu,  E. I. Proynov,  R. M. Richard,  R. P. Steele,  E. J. Sundstrom,  
 H. L. Woodcock III,  P. M. Zimmerman,  D. Zuev,  B. Albrecht,  E. Alguire,  
 S. A. Baeppler,  D. Barton,  Z. Benda,  Y. A. Bernard,  E. J. Berquist,  
 K. B. Bravaya,  H. Burton,  D. Casanova,  Chun-Min Chang,  Yunqing Chen,  
 A. Chien,  K. D. Closser,  M. P. Coons,  S. Coriani,  S. Dasgupta,  
 A. L. Dempwolff,  M. Diedenhofen,  Hainam Do,  R. G. Edgar,  Po-Tung Fang,  
 S. Faraji,  S. Fatehi,  Qingguo Feng,  K. D. Fenk,  J. Fosso-Tande,  
 J. Gayvert,  Qinghui Ge,  A. Ghysels,  G. Gidofalvi,  J. Gomes,  
 J. Gonthier,  A. Gunina,  D. Hait,  M. W. D. Hanson-Heine,  
 P. H. P. Harbach,  A. W. Hauser,  M. F. Herbst,  J. E. Herr,  
 E. G. Hohenstein,  Z. C. Holden,  Kerwin Hui,  B. C. Huynh,  T.-C. Jagau,  
 Hyunjun Ji,  B. Kaduk,  K. Khistyaev,  Jaehoon Kim,  P. Klunzinger,  K. Koh,  
 D. Kosenkov,  L. Koulias,  T. Kowalczyk,  C. M. Krauter,  A. Kunitsa,  
 Ka Un Lao,  A. Laurent,  K. V. Lawler,  Joonho Lee,  D. Lefrancois,  
 S. Lehtola,  D. S. Levine,  Yi-Pei Li,  You-Sheng Lin,  Fenglai Liu,  
 E. Livshits,  A. Luenser,  P. Manohar,  E. Mansoor,  S. F. Manzer,  
 Shan-Ping Mao,  Yuezhi Mao,  N. Mardirossian,  A. V. Marenich,  
 T. Markovich,  L. A. Martinez-Martinez,  S. A. Maurer,  N. J. Mayhall,  
 S. C. McKenzie,  J.-M. Mewes,  P. Morgante,  A. F. Morrison,  
 J. W. Mullinax,  K. Nanda,  T. S. Nguyen-Beck,  R. Olivares-Amaya,  
 J. A. Parkhill,  Zheng Pei,  T. M. Perrine,  F. Plasser,  P. Pokhilko,  
 S. Prager,  A. Prociuk,  E. Ramos,  D. R. Rehn,  F. Rob,  M. Scheurer,  
 M. Schneider,  N. Sergueev,  S. M. Sharada,  S. Sharma,  D. W. Small,  
 T. Stauch,  T. Stein,  Yu-Chuan Su,  A. J. W. Thom,  A. Tkatchenko,  
 T. Tsuchimochi,  N. M. Tubman,  L. Vogt,  M. L. Vidal,  O. Vydrov,  
 M. A. Watson,  J. Wenzel,  M. de Wergifosse,  T. A. Wesolowski,  A. White,  
 J. Witte,  A. Yamada,  Jun Yang,  K. Yao,  S. Yeganeh,  S. R. Yost,  
 Zhi-Qiang You,  A. Zech,  Igor Ying Zhang,  Xing Zhang,  Yan Zhao,  
 Ying Zhu,  B. R. Brooks,  G. K. L. Chan,  C. J. Cramer,  M. S. Gordon,  
 W. J. Hehre,  A. Klamt,  M. W. Schmidt,  C. D. Sherrill,  D. G. Truhlar,  
 A. Aspuru-Guzik,  R. Baer,  A. T. Bell,  N. A. Besley,  Jeng-Da Chai,  
 A. E. DePrince, III,  R. A. DiStasio Jr.,  A. Dreuw,  B. D. Dunietz,  
 T. R. Furlani,  Chao-Ping Hsu,  Yousung Jung,  Jing Kong,  D. S. Lambrecht,  
 WanZhen Liang,  C. Ochsenfeld,  V. A. Rassolov,  L. V. Slipchenko,  
 J. E. Subotnik,  T. Van Voorhis,  J. M. Herbert,  A. I. Krylov,  
 P. M. W. Gill,  M. Head-Gordon

 Contributors to earlier versions of Q-Chem not listed above: 
 R. D. Adamson,  B. Austin,  J. Baker,  G. J. O. Beran,  K. Brandhorst,  
 S. T. Brown,  E. F. C. Byrd,  A. K. Chakraborty,  C.-L. Cheng,  
 Siu Hung Chien,  D. M. Chipman,  D. L. Crittenden,  H. Dachsel,  
 R. J. Doerksen,  A. D. Dutoi,  L. Fusti-Molnar,  W. A. Goddard III,  
 A. Golubeva-Zadorozhnaya,  S. R. Gwaltney,  G. Hawkins,  A. Heyden,  
 S. Hirata,  G. Kedziora,  F. J. Keil,  C. Kelley,  Jihan Kim,  R. A. King,  
 R. Z. Khaliullin,  P. P. Korambath,  W. Kurlancheek,  A. M. Lee,  M. S. Lee,  
 S. V. Levchenko,  Ching Yeh Lin,  D. Liotard,  R. C. Lochan,  I. Lotan,  
 P. E. Maslen,  N. Nair,  D. P. O'Neill,  D. Neuhauser,  E. Neuscamman,  
 C. M. Oana,  R. Olson,  B. Peters,  R. Peverati,  P. A. Pieniazek,  
 Y. M. Rhee,  J. Ritchie,  M. A. Rohrdanz,  E. Rosta,  N. J. Russ,  
 H. F. Schaefer III,  N. E. Schultz,  N. Shenvi,  A. C. Simmonett,  A. Sodt,  
 D. Stuck,  K. S. Thanthiriwatte,  V. Vanovschi,  Tao Wang,  A. Warshel,  
 C. F. Williams,  Q. Wu,  X. Xu,  W. Zhang

 Please cite Q-Chem as follows:
 Y. Shao et al., Mol. Phys. 113, 184-215 (2015)
 DOI: 10.1080/00268976.2014.952696

 Q-Chem 5.2.1 for Intel X86 EM64T Linux

 Parts of Q-Chem use Armadillo 8.300.2 (Tropical Shenanigans).
 http://arma.sourceforge.net/

 Q-Chem begins on Mon Feb  7 08:27:23 2022  

Host: 
0

     Scratch files written to /gpfs/fs0/scratch/a/aspuru/rhickman/descriptor_computation/qchem250263//
 Jul1719 |scratch|qcdevops|jenkins|workspace|build_RNUM -1
Processing $rem in /scinet/niagara/software/commercial/qc52/config/preferences:
	 MEM_TOTAL  4000 
NAlpha2: 100
NElect   100
Mult     1

Checking the input file for inconsistencies... 	...done.

--------------------------------------------------------------
User input:
--------------------------------------------------------------
$molecule
0 1
C        -5.67005772000000   -0.82993385980000    0.04845313860000
C        -4.38822249450000   -1.16815597710000   -0.01594505940000
C        -3.24485418550000   -0.26197823230000   -0.01259654570000
C        -3.37468732560000    1.12796444580000   -0.00962735620000
C        -2.25196693070000    1.93499248020000   -0.00539755840000
C        -0.98435923430000    1.38568551040000   -0.00388815990000
C        -0.81812852240000   -0.00221599260000   -0.00843949590000
C         0.48017280120000   -0.64671179980000   -0.00834986400000
C         1.67862176210000   -0.04274911780000   -0.00173276460000
C         2.91485085980000   -0.77676814410000   -0.00179083890000
C         4.11125162390000   -0.20004908140000    0.00469923810000
F         4.34227098930000    1.10937090260000    0.01191714520000
F         5.26796249830000   -0.85648973190000    0.00470191670000
C        -1.96164192870000   -0.80207711560000   -0.01407899890000
H        -6.44581854000000   -1.57626706210000    0.04159167510000
H        -6.00290579950000    0.19166251680000    0.11294799310000
H        -4.12719370560000   -2.21823253230000   -0.07240592240000
H        -4.35350058460000    1.58079345680000   -0.01412910290000
H        -2.36733367510000    3.00926356580000   -0.00387560810000
H        -0.12446605630000    2.03648559360000   -0.00047887460000
H         0.45368215350000   -1.73001644990000   -0.01391596110000
H         1.76691795110000    1.03334535550000    0.00416968790000
H         2.88430135360000   -1.85536066530000   -0.00739590480000
H        -1.84660116550000   -1.87783813850000   -0.01782335710000
$end

$rem
BASIS = 6-31G*
GUI = 2
METHOD = B3LYP
PRINT_ORBITALS false
MOLDEN_FORMAT false
--------------------------------------------------------------
 ----------------------------------------------------------------
             Standard Nuclear Orientation (Angstroms)
    I     Atom           X                Y                Z
 ----------------------------------------------------------------
    1      C       5.5237430816     0.8154574376     0.0474839369
    2      C       4.2422732260     1.1551645206    -0.0163673034
    3      C       3.0978853625     0.2502736939    -0.0132985042
    4      C       3.2261528382    -1.1398159980    -0.0112462250
    5      C       2.1025248357    -1.9455810225    -0.0072384822
    6      C       0.8355373976    -1.3948471968    -0.0050516863
    7      C       0.6708696655    -0.0067566614    -0.0086779814
    8      C      -0.6267044765     0.6392014087    -0.0078425112
    9      C      -1.8258315407     0.0365853759    -0.0012988088
   10      C      -3.0612326516     0.7719967443    -0.0005702318
   11      C      -4.2582808520     0.1966220810     0.0058632305
   12      F      -4.4907738011    -1.1125410953     0.0123088616
   13      F      -5.4142512011     0.8543655029     0.0065826648
   14      C       1.8152822249     0.7918189254    -0.0141053691
   15      H       6.3003426635     1.5609202902     0.0408958248
   16      H       5.8554563470    -0.2065541242     0.1112433604
   17      H       3.9824133730     2.2055702070    -0.0720932408
   18      H       4.2044539813    -1.5937446445    -0.0162892577
   19      H       2.2166812860    -3.0199821660    -0.0064290918
   20      H      -0.0250877202    -2.0446800194    -0.0018332511
   21      H      -0.5989944940     1.7224788426    -0.0127270494
   22      H      -1.9153388110    -1.0394124618     0.0039426750
   23      H      -3.0294691336     1.8505575048    -0.0054977845
   24      H       1.7014528606     1.8677110506    -0.0171363045
 ----------------------------------------------------------------
 Molecular Point Group                 C1    NOp =  1
 Largest Abelian Subgroup              C1    NOp =  1
 Nuclear Repulsion Energy =         762.07648074 hartrees
 There are       50 alpha and       50 beta electrons
 Requested basis set is 6-31G(d)
 There are 76 shells and 230 basis functions

 Total QAlloc Memory Limit   4000 MB
 Mega-Array Size       188 MB
 MEM_STATIC part       192 MB
 A cutoff of  1.0D-08 yielded   1728 shell pairs
 There are     16304 function pairs
 Smallest overlap matrix eigenvalue = 3.76E-04

 Scale SEOQF with 1.000000e-02/1.000000e-01/1.000000e+00

 Standard Electronic Orientation quadrupole field applied
 Nucleus-field energy     =     0.0000000126 hartrees
 Guess from superposition of atomic densities
 Warning:  Energy on first SCF cycle will be non-variational
 SAD guess density has 100.000000 electrons

 -----------------------------------------------------------------------
  General SCF calculation program by
  Eric Jon Sundstrom, Paul Horn, Yuezhi Mao, Dmitri Zuev, Alec White,
  David Stuck, Shaama M.S., Shane Yost, Joonho Lee, David Small,
  Daniel Levine, Susi Lehtola, Hugh Burton, Evgeny Epifanovsky,
  Bang C. Huynh
 -----------------------------------------------------------------------
 Exchange:     0.2000 Hartree-Fock + 0.0800 Slater + 0.7200 B88
 Correlation:  0.1900 VWN1RPA + 0.8100 LYP
 Using SG-1 standard quadrature grid
 A restricted SCF calculation will be
 performed using DIIS
 SCF converges when DIIS error is below 1.0e-05
 ---------------------------------------
  Cycle       Energy         DIIS error
 ---------------------------------------
    1    -666.0603173329      5.26e-02  
    2    -662.6709148011      5.92e-03  
    3    -662.4301111157      8.29e-03  
    4    -662.8958201065      1.82e-03  
    5    -662.9187645631      5.81e-04  
    6    -662.9203424243      3.52e-04  
    7    -662.9212026534      6.53e-05  
    8    -662.9212315651      2.19e-05  
    9    -662.9212347209      6.30e-06  Convergence criterion met
 ---------------------------------------
 SCF time:   CPU 32.34s  wall 32.00s 
 SCF   energy in the final basis set =     -662.9212347209
 Total energy in the final basis set =     -662.9212347209
 
 --------------------------------------------------------------
 
                    Orbital Energies (a.u.)
 --------------------------------------------------------------
 
 Alpha MOs
 -- Occupied --
-24.7413 -24.7373 -10.3567 -10.2040 -10.2000 -10.1976 -10.1959 -10.1931
-10.1910 -10.1893 -10.1879 -10.1878 -10.1870 -10.1806  -1.2843  -1.2251
 -0.8690  -0.8291  -0.7975  -0.7730  -0.7368  -0.7188  -0.6507  -0.6284
 -0.6068  -0.5936  -0.5722  -0.5403  -0.5299  -0.5185  -0.5102  -0.4815
 -0.4637  -0.4508  -0.4411  -0.4381  -0.4301  -0.4177  -0.4157  -0.4052
 -0.3848  -0.3832  -0.3644  -0.3479  -0.3378  -0.3363  -0.3018  -0.2702
 -0.2295  -0.2043
 -- Virtual --
 -0.0506  -0.0214   0.0221   0.0624   0.0931   0.0986   0.1049   0.1131
  0.1184   0.1318   0.1486   0.1554   0.1824   0.1881   0.1953   0.2114
  0.2192   0.2389   0.2624   0.2957   0.2982   0.3257   0.3288   0.3704
  0.3760   0.4137   0.4393   0.4453   0.4866   0.4992   0.5060   0.5130
  0.5398   0.5408   0.5560   0.5608   0.5626   0.5699   0.5726   0.5776
  0.5876   0.5886   0.5999   0.6143   0.6204   0.6240   0.6344   0.6455
  0.6482   0.6572   0.6948   0.6979   0.7095   0.7785   0.7918   0.8027
  0.8203   0.8250   0.8274   0.8521   0.8729   0.8784   0.8851   0.8965
  0.9016   0.9382   0.9470   0.9591   0.9696   0.9974   1.0044   1.0326
  1.0394   1.0696   1.0997   1.1158   1.1384   1.1518   1.1599   1.1771
  1.1824   1.1981   1.2290   1.2341   1.2476   1.2796   1.2947   1.3192
  1.3266   1.3547   1.3619   1.4002   1.4089   1.4400   1.4529   1.4563
  1.4616   1.4832   1.4970   1.5025   1.5173   1.5553   1.6120   1.6181
  1.6567   1.6774   1.7130   1.7797   1.7847   1.7976   1.8102   1.8266
  1.8342   1.8368   1.8766   1.8855   1.9218   1.9445   1.9519   1.9577
  1.9772   1.9893   1.9944   1.9986   2.0034   2.0307   2.0526   2.1129
  2.1270   2.1436   2.1685   2.1750   2.1877   2.2071   2.2263   2.2362
  2.2736   2.2868   2.3251   2.3410   2.3637   2.3736   2.4586   2.4727
  2.5305   2.5474   2.5665   2.5793   2.6212   2.6238   2.6564   2.6681
  2.6846   2.7170   2.8067   2.8499   2.8694   2.8958   2.9500   2.9692
  3.0348   3.0850   3.1481   3.2163   3.2733   3.4687   4.0775   4.0907
  4.0931   4.1200   4.1425   4.1565   4.2189   4.2495   4.3657   4.4134
  4.5157   4.7543   4.7787   5.2410
 --------------------------------------------------------------
 
          Ground-State Mulliken Net Atomic Charges

     Atom                 Charge (a.u.)
  ----------------------------------------
      1 C                    -0.354363
      2 C                    -0.108065
      3 C                     0.179526
      4 C                    -0.181714
      5 C                    -0.130433
      6 C                    -0.180195
      7 C                     0.187982
      8 C                    -0.195506
      9 C                    -0.109550
     10 C                    -0.226246
     11 C                     0.532596
     12 F                    -0.238372
     13 F                    -0.245014
     14 C                    -0.279318
     15 H                     0.144820
     16 H                     0.143346
     17 H                     0.126577
     18 H                     0.126603
     19 H                     0.130499
     20 H                     0.128137
     21 H                     0.122463
     22 H                     0.142251
     23 H                     0.158984
     24 H                     0.124992
  ----------------------------------------
  Sum of atomic charges =     0.000000

 -----------------------------------------------------------------
                    Cartesian Multipole Moments
 -----------------------------------------------------------------
    Charge (ESU x 10^10)
                 0.0000
    Dipole Moment (Debye)
         X       0.8932      Y       0.3214      Z      -0.0048
       Tot       0.9493
    Quadrupole Moments (Debye-Ang)
        XX     -80.0731     XY      -1.5070     YY     -71.7089
        XZ       0.0951     YZ      -0.1416     ZZ     -83.6789
    Octopole Moments (Debye-Ang^2)
       XXX      -4.2830    XXY      -0.9741    XYY     -15.0953
       YYY      -1.6615    XXZ       0.8597    XYZ      -0.5027
       YYZ      -0.2271    XZZ     -38.1194    YZZ      -1.2944
       ZZZ       0.1820
    Hexadecapole Moments (Debye-Ang^3)
      XXXX   -5392.2554   XXXY       4.7746   XXYY    -950.8720
      XYYY      -5.0115   YYYY    -556.8572   XXXZ       7.0196
      XXYZ      -2.1367   XYYZ      -1.0817   YYYZ      -0.6909
      XXZZ    -958.9412   XYZZ       0.6508   YYZZ    -122.9141
      XZZZ      -1.1076   YZZZ      -0.2471   ZZZZ     -81.8026
 -----------------------------------------------------------------
Archival summary:
1\1\nia0005.scinet.local\SP\ProcedureUnspecified\6-31G*\21210\rhickman\MonFeb708:27:552022MonFeb708:27:552022\0\\#,ProcedureUnspecified,6-31G*,\\0,1\F\C,1,1.32966\C,2,1.32816,1,125.743\H,3,1.07904,2,117.359,1,179.991,0\F,2,1.33,1,109.569,3,179.99,0\C,3,1.43772,2,123.563,1,-0.00683535,0\H,6,1.07973,3,116.009,2,-0.0098496,0\C,6,1.34205,3,122.554,2,-179.999,0\H,8,1.08364,6,118.148,3,0,0\C,8,1.44947,6,126.853,3,179.976,0\C,10,1.3955,8,118.627,6,-179.911,0\H,11,1.0819,10,118.868,8,0.0235671,0\C,11,1.39224,10,122.201,8,179.904,0\C,13,1.396,11,118.163,10,0.206489,0\H,14,1.07849,13,120.162,11,179.649,0\C,14,1.38268,13,120.373,11,-0.135698,0\H,16,1.08045,14,119.58,13,179.955,0\C,16,1.38151,14,120.862,13,-0.00671305,0\H,18,1.07841,16,119.451,14,-179.994,0\C,13,1.45892,11,118.775,10,-179.871,0\H,20,1.08351,13,114.411,11,-3.07895,0\C,20,1.32727,13,126.762,11,176.571,0\H,22,1.07639,20,122.916,13,-0.0491942,0\H,22,1.07651,20,121.264,13,-179.874,0\\\@

 Total job time:  32.64s(wall), 32.53s(cpu) 
 Mon Feb  7 08:27:55 2022

        *************************************************************
        *                                                           *
        *  Thank you very much for using Q-Chem.  Have a nice day.  *
        *                                                           *
        *************************************************************


