
Running Job 1 of 1 fragments/A004/conf-2/spe_input.inp
qchem fragments/A004/conf-2/spe_input.inp_196661.0 /gpfs/fs0/scratch/a/aspuru/rhickman/descriptor_computation/qchem196661/ 0
/scinet/niagara/software/commercial/qc52/exe/qcprog.exe_s fragments/A004/conf-2/spe_input.inp_196661.0 /gpfs/fs0/scratch/a/aspuru/rhickman/descriptor_computation/qchem196661/
                  Welcome to Q-Chem
     A Quantum Leap Into The Future Of Chemistry


 Q-Chem 5.2, Q-Chem, Inc., Pleasanton, CA (2019)

 License issued to: SRG Alan Aspuru-Guzik, University of Toronto

 Yihan Shao,  Zhengting Gan,  E. Epifanovsky,  A. T. B. Gilbert,  M. Wormit,  
 J. Kussmann,  A. W. Lange,  A. Behn,  Jia Deng,  Xintian Feng,  D. Ghosh,  
 M. Goldey,  P. R. Horn,  L. D. Jacobson,  I. Kaliman,  T. Kus,  A. Landau,  
 Jie Liu,  E. I. Proynov,  R. M. Richard,  R. P. Steele,  E. J. Sundstrom,  
 H. L. Woodcock III,  P. M. Zimmerman,  D. Zuev,  B. Albrecht,  E. Alguire,  
 S. A. Baeppler,  D. Barton,  Z. Benda,  Y. A. Bernard,  E. J. Berquist,  
 K. B. Bravaya,  H. Burton,  D. Casanova,  Chun-Min Chang,  Yunqing Chen,  
 A. Chien,  K. D. Closser,  M. P. Coons,  S. Coriani,  S. Dasgupta,  
 A. L. Dempwolff,  M. Diedenhofen,  Hainam Do,  R. G. Edgar,  Po-Tung Fang,  
 S. Faraji,  S. Fatehi,  Qingguo Feng,  K. D. Fenk,  J. Fosso-Tande,  
 J. Gayvert,  Qinghui Ge,  A. Ghysels,  G. Gidofalvi,  J. Gomes,  
 J. Gonthier,  A. Gunina,  D. Hait,  M. W. D. Hanson-Heine,  
 P. H. P. Harbach,  A. W. Hauser,  M. F. Herbst,  J. E. Herr,  
 E. G. Hohenstein,  Z. C. Holden,  Kerwin Hui,  B. C. Huynh,  T.-C. Jagau,  
 Hyunjun Ji,  B. Kaduk,  K. Khistyaev,  Jaehoon Kim,  P. Klunzinger,  K. Koh,  
 D. Kosenkov,  L. Koulias,  T. Kowalczyk,  C. M. Krauter,  A. Kunitsa,  
 Ka Un Lao,  A. Laurent,  K. V. Lawler,  Joonho Lee,  D. Lefrancois,  
 S. Lehtola,  D. S. Levine,  Yi-Pei Li,  You-Sheng Lin,  Fenglai Liu,  
 E. Livshits,  A. Luenser,  P. Manohar,  E. Mansoor,  S. F. Manzer,  
 Shan-Ping Mao,  Yuezhi Mao,  N. Mardirossian,  A. V. Marenich,  
 T. Markovich,  L. A. Martinez-Martinez,  S. A. Maurer,  N. J. Mayhall,  
 S. C. McKenzie,  J.-M. Mewes,  P. Morgante,  A. F. Morrison,  
 J. W. Mullinax,  K. Nanda,  T. S. Nguyen-Beck,  R. Olivares-Amaya,  
 J. A. Parkhill,  Zheng Pei,  T. M. Perrine,  F. Plasser,  P. Pokhilko,  
 S. Prager,  A. Prociuk,  E. Ramos,  D. R. Rehn,  F. Rob,  M. Scheurer,  
 M. Schneider,  N. Sergueev,  S. M. Sharada,  S. Sharma,  D. W. Small,  
 T. Stauch,  T. Stein,  Yu-Chuan Su,  A. J. W. Thom,  A. Tkatchenko,  
 T. Tsuchimochi,  N. M. Tubman,  L. Vogt,  M. L. Vidal,  O. Vydrov,  
 M. A. Watson,  J. Wenzel,  M. de Wergifosse,  T. A. Wesolowski,  A. White,  
 J. Witte,  A. Yamada,  Jun Yang,  K. Yao,  S. Yeganeh,  S. R. Yost,  
 Zhi-Qiang You,  A. Zech,  Igor Ying Zhang,  Xing Zhang,  Yan Zhao,  
 Ying Zhu,  B. R. Brooks,  G. K. L. Chan,  C. J. Cramer,  M. S. Gordon,  
 W. J. Hehre,  A. Klamt,  M. W. Schmidt,  C. D. Sherrill,  D. G. Truhlar,  
 A. Aspuru-Guzik,  R. Baer,  A. T. Bell,  N. A. Besley,  Jeng-Da Chai,  
 A. E. DePrince, III,  R. A. DiStasio Jr.,  A. Dreuw,  B. D. Dunietz,  
 T. R. Furlani,  Chao-Ping Hsu,  Yousung Jung,  Jing Kong,  D. S. Lambrecht,  
 WanZhen Liang,  C. Ochsenfeld,  V. A. Rassolov,  L. V. Slipchenko,  
 J. E. Subotnik,  T. Van Voorhis,  J. M. Herbert,  A. I. Krylov,  
 P. M. W. Gill,  M. Head-Gordon

 Contributors to earlier versions of Q-Chem not listed above: 
 R. D. Adamson,  B. Austin,  J. Baker,  G. J. O. Beran,  K. Brandhorst,  
 S. T. Brown,  E. F. C. Byrd,  A. K. Chakraborty,  C.-L. Cheng,  
 Siu Hung Chien,  D. M. Chipman,  D. L. Crittenden,  H. Dachsel,  
 R. J. Doerksen,  A. D. Dutoi,  L. Fusti-Molnar,  W. A. Goddard III,  
 A. Golubeva-Zadorozhnaya,  S. R. Gwaltney,  G. Hawkins,  A. Heyden,  
 S. Hirata,  G. Kedziora,  F. J. Keil,  C. Kelley,  Jihan Kim,  R. A. King,  
 R. Z. Khaliullin,  P. P. Korambath,  W. Kurlancheek,  A. M. Lee,  M. S. Lee,  
 S. V. Levchenko,  Ching Yeh Lin,  D. Liotard,  R. C. Lochan,  I. Lotan,  
 P. E. Maslen,  N. Nair,  D. P. O'Neill,  D. Neuhauser,  E. Neuscamman,  
 C. M. Oana,  R. Olson,  B. Peters,  R. Peverati,  P. A. Pieniazek,  
 Y. M. Rhee,  J. Ritchie,  M. A. Rohrdanz,  E. Rosta,  N. J. Russ,  
 H. F. Schaefer III,  N. E. Schultz,  N. Shenvi,  A. C. Simmonett,  A. Sodt,  
 D. Stuck,  K. S. Thanthiriwatte,  V. Vanovschi,  Tao Wang,  A. Warshel,  
 C. F. Williams,  Q. Wu,  X. Xu,  W. Zhang

 Please cite Q-Chem as follows:
 Y. Shao et al., Mol. Phys. 113, 184-215 (2015)
 DOI: 10.1080/00268976.2014.952696

 Q-Chem 5.2.1 for Intel X86 EM64T Linux

 Parts of Q-Chem use Armadillo 8.300.2 (Tropical Shenanigans).
 http://arma.sourceforge.net/

 Q-Chem begins on Fri Feb  4 12:15:14 2022  

Host: 
0

     Scratch files written to /gpfs/fs0/scratch/a/aspuru/rhickman/descriptor_computation/qchem196661//
 Jul1719 |scratch|qcdevops|jenkins|workspace|build_RNUM -1
Processing $rem in /scinet/niagara/software/commercial/qc52/config/preferences:
	 MEM_TOTAL  4000 
NAlpha2: 174
NElect   174
Mult     1

Checking the input file for inconsistencies... 	...done.

--------------------------------------------------------------
User input:
--------------------------------------------------------------
$molecule
0 1
C        -3.09620425290000    2.63280788870000    1.68234837520000
C        -2.54809264410000    2.62959756890000    0.25587771890000
C        -1.57763148370000    3.79319049680000    0.04961231470000
O        -1.72843600360000    1.45633208780000    0.03375300240000
C        -2.24868708080000    0.22942549530000    0.14440922390000
N        -1.27589045840000   -0.72233117980000   -0.07914843720000
C         0.09220873820000   -0.38518871810000   -0.14910398530000
C         0.69494328650000    0.40391932530000    0.82632644460000
C         2.03472371280000    0.71992500770000    0.74272423340000
C         2.81629251840000    0.24562566250000   -0.31331396980000
C         4.23105976390000    0.53985055860000   -0.46242422830000
C         5.00524901820000    1.28782419390000    0.31056223670000
F         4.66955271080000    1.94869411750000    1.41249476160000
F         6.29995065290000    1.48678213480000    0.06776849040000
C         2.20521141330000   -0.56091106190000   -1.27727464950000
C         0.86517708280000   -0.87275864420000   -1.19991353580000
C        -1.63077945170000   -2.08128287710000   -0.25452719910000
C        -2.75385662050000   -2.44499391370000   -0.98765034360000
C        -3.07057255740000   -3.78254285270000   -1.14249674470000
C        -2.26944121790000   -4.76397995620000   -0.58459633030000
C        -1.14565642250000   -4.40165177010000    0.13916193410000
C        -0.82694057320000   -3.06783061030000    0.30939265660000
O        -3.39830300490000   -0.03974613310000    0.38682461630000
C        -3.68089760440000    2.68646634070000   -0.76818501980000
H        -2.27985953670000    2.56612557960000    2.39873697340000
H        -3.76564403430000    1.78990300280000    1.83085771170000
H        -3.64407813170000    3.55378468080000    1.86018244780000
H        -0.75581672980000    3.72396851500000    0.75735382190000
H        -2.09356475060000    4.73756287300000    0.19382884010000
H        -1.16662303080000    3.76066230410000   -0.95584999640000
H         0.10811650600000    0.76678844790000    1.65543797820000
H         2.47411343670000    1.33148230930000    1.51336540210000
H         4.72740115620000    0.09813776150000   -1.31460302700000
H         2.79153969410000   -0.94090827100000   -2.10088616760000
H         0.40530409610000   -1.49601854190000   -1.95236815100000
H        -3.37980011990000   -1.68453148570000   -1.42520643030000
H        -3.94657247880000   -4.05803944980000   -1.71044190870000
H        -2.51934577450000   -5.80645441310000   -0.71194356540000
H        -0.51666200780000   -5.16032449520000    0.58075894720000
H         0.04490999480000   -2.78358942660000    0.88035378690000
H        -4.22595726040000    3.61969699200000   -0.65848642520000
H        -4.36640989830000    1.85717109720000   -0.61726241290000
H        -3.27509160040000    2.63099264070000   -1.77625793320000
$end

$rem
BASIS = 6-31G*
GUI = 2
METHOD = B3LYP
PRINT_ORBITALS false
MOLDEN_FORMAT false
--------------------------------------------------------------
 ----------------------------------------------------------------
             Standard Nuclear Orientation (Angstroms)
    I     Atom           X                Y                Z
 ----------------------------------------------------------------
    1      C       1.9035457297     3.6537051359    -1.3025676679
    2      C       1.4743058042     3.2706420418     0.1131550900
    3      C       0.2014037056     4.0189931714     0.5106215877
    4      O       1.0816974686     1.8773350038     0.1609303972
    5      C       1.9541603322     0.9115172791    -0.1460068010
    6      N       1.3468069575    -0.3237711325    -0.0603535264
    7      C      -0.0506734280    -0.4572828320     0.0792080302
    8      C      -0.9308839922     0.2276016034    -0.7536230669
    9      C      -2.2940355530     0.0814384905    -0.6042420834
   10      C      -2.8189486147    -0.7645923486     0.3754131878
   11      C      -4.2421693598    -0.9645904186     0.5871016384
   12      C      -5.2591788683    -0.4022196906    -0.0499010773
   13      F      -5.2181615207     0.4819300518    -1.0399986312
   14      F      -6.5328412125    -0.6662744072     0.2379265239
   15      C      -1.9260550719    -1.4614733333     1.1940949400
   16      C      -0.5635850083    -1.3122289354     1.0515218053
   17      C       2.1220964258    -1.5072201559    -0.1031118282
   18      C       3.3459124847    -1.5921479062     0.5496661751
   19      C       4.0770286888    -2.7648742563     0.4904584007
   20      C       3.5929450498    -3.8610243801    -0.2026512733
   21      C       2.3694777174    -3.7789584859    -0.8463848220
   22      C       1.6366847127    -2.6081626302    -0.8029261702
   23      O       3.1125799965     1.0632127574    -0.4424654391
   24      C       2.5928947072     3.5409562426     1.1185777509
   25      H       1.1068897680     3.4317551168    -2.0097842664
   26      H       2.7939088034     3.1006982116    -1.5891513891
   27      H       2.1210476269     4.7172407354    -1.3422406996
   28      H      -0.5990935955     3.7916723200    -0.1883766348
   29      H       0.3833774943     5.0893690247     0.5082132841
   30      H      -0.1149707573     3.7127349376     1.5041272918
   31      H      -0.5411438382     0.8743287181    -1.5238907198
   32      H      -2.9508526799     0.6232243539    -1.2645547470
   33      H      -4.5199356785    -1.6593883826     1.3667011119
   34      H      -2.3102673871    -2.1232889248     1.9562600693
   35      H       0.1151856497    -1.8557936808     1.6917809508
   36      H       3.7262458252    -0.7418886060     1.0918555981
   37      H       5.0287790034    -2.8228861413     0.9970567687
   38      H       4.1660822713    -4.7750088605    -0.2422580132
   39      H       1.9854395596    -4.6279432994    -1.3922471484
   40      H       0.6859200582    -2.5402005096    -1.3111985358
   41      H       2.8081113968     4.6053108065     1.1481479673
   42      H       3.4940388133     3.0061951781     0.8315146164
   43      H       2.2888410683     3.2145124885     2.1110255848
 ----------------------------------------------------------------
 Molecular Point Group                 C1    NOp =  1
 Largest Abelian Subgroup              C1    NOp =  1
 Nuclear Repulsion Energy =        2032.33402276 hartrees
 There are       87 alpha and       87 beta electrons
 Requested basis set is 6-31G(d)
 There are 134 shells and 398 basis functions

 Total QAlloc Memory Limit   4000 MB
 Mega-Array Size       188 MB
 MEM_STATIC part       192 MB
 A cutoff of  1.0D-08 yielded   4265 shell pairs
 There are     39978 function pairs
 Smallest overlap matrix eigenvalue = 3.64E-04

 Scale SEOQF with 1.000000e-02/1.000000e-01/1.000000e-01

 Standard Electronic Orientation quadrupole field applied
 Nucleus-field energy     =     0.0000000592 hartrees
 Guess from superposition of atomic densities
 Warning:  Energy on first SCF cycle will be non-variational
 SAD guess density has 174.000000 electrons

 -----------------------------------------------------------------------
  General SCF calculation program by
  Eric Jon Sundstrom, Paul Horn, Yuezhi Mao, Dmitri Zuev, Alec White,
  David Stuck, Shaama M.S., Shane Yost, Joonho Lee, David Small,
  Daniel Levine, Susi Lehtola, Hugh Burton, Evgeny Epifanovsky,
  Bang C. Huynh
 -----------------------------------------------------------------------
 Exchange:     0.2000 Hartree-Fock + 0.0800 Slater + 0.7200 B88
 Correlation:  0.1900 VWN1RPA + 0.8100 LYP
 Using SG-1 standard quadrature grid
 A restricted SCF calculation will be
 performed using DIIS
 SCF converges when DIIS error is below 1.0e-05
 ---------------------------------------
  Cycle       Energy         DIIS error
 ---------------------------------------
    1   -1145.9631221380      4.08e-02  
    2   -1139.8797305004      4.95e-03  
    3   -1139.3987666515      7.35e-03  
    4   -1140.2866766502      1.79e-03  
    5   -1140.3390387754      5.05e-04  
    6   -1140.3426998721      2.35e-04  
    7   -1140.3437598806      5.23e-05  
    8   -1140.3438074970      2.10e-05  
    9   -1140.3438157934      6.28e-06  Convergence criterion met
 ---------------------------------------
 SCF time:   CPU 134.03s  wall 134.00s 
 SCF   energy in the final basis set =    -1140.3438157934
 Total energy in the final basis set =    -1140.3438157934
 
 --------------------------------------------------------------
 
                    Orbital Energies (a.u.)
 --------------------------------------------------------------
 
 Alpha MOs
 -- Occupied --
-24.7457 -24.7350 -19.1836 -19.1204 -14.3767 -10.3574 -10.3346 -10.2549
-10.2307 -10.2271 -10.2074 -10.2045 -10.1942 -10.1923 -10.1922 -10.1914
-10.1862 -10.1854 -10.1850 -10.1831 -10.1826 -10.1767 -10.1713 -10.1701
 -1.2865  -1.2255  -1.1117  -1.0197  -0.9676  -0.8692  -0.8518  -0.8134
 -0.8056  -0.7591  -0.7513  -0.7472  -0.7325  -0.6967  -0.6935  -0.6626
 -0.6483  -0.6219  -0.6202  -0.6058  -0.5897  -0.5740  -0.5567  -0.5366
 -0.5311  -0.5201  -0.5092  -0.4952  -0.4862  -0.4693  -0.4645  -0.4609
 -0.4540  -0.4503  -0.4421  -0.4418  -0.4384  -0.4339  -0.4312  -0.4226
 -0.4205  -0.4155  -0.4109  -0.3963  -0.3904  -0.3831  -0.3795  -0.3728
 -0.3682  -0.3591  -0.3575  -0.3538  -0.3478  -0.3465  -0.3335  -0.3171
 -0.2936  -0.2865  -0.2704  -0.2599  -0.2477  -0.2390  -0.2023
 -- Virtual --
 -0.0328  -0.0079  -0.0021   0.0092   0.0478   0.0740   0.0798   0.0868
  0.0975   0.1056   0.1182   0.1379   0.1451   0.1486   0.1548   0.1584
  0.1601   0.1637   0.1675   0.1719   0.1780   0.1803   0.1854   0.1916
  0.1951   0.1967   0.1983   0.2015   0.2090   0.2143   0.2295   0.2331
  0.2436   0.2567   0.2628   0.2686   0.2848   0.3010   0.3109   0.3170
  0.3239   0.3394   0.3456   0.3581   0.3988   0.4113   0.4157   0.4242
  0.4662   0.4798   0.4839   0.4956   0.4987   0.5049   0.5164   0.5207
  0.5281   0.5340   0.5364   0.5457   0.5499   0.5505   0.5607   0.5673
  0.5751   0.5762   0.5817   0.5850   0.5915   0.5926   0.5958   0.5986
  0.6089   0.6126   0.6147   0.6185   0.6219   0.6247   0.6391   0.6424
  0.6516   0.6616   0.6708   0.6793   0.6863   0.6943   0.7025   0.7176
  0.7243   0.7307   0.7402   0.7594   0.7794   0.7944   0.8046   0.8250
  0.8308   0.8317   0.8409   0.8437   0.8454   0.8479   0.8511   0.8531
  0.8651   0.8736   0.8814   0.8869   0.8996   0.9033   0.9090   0.9145
  0.9213   0.9268   0.9389   0.9437   0.9522   0.9580   0.9653   0.9682
  0.9758   0.9845   0.9973   1.0076   1.0083   1.0158   1.0235   1.0541
  1.0790   1.0869   1.0981   1.1094   1.1215   1.1359   1.1414   1.1498
  1.1581   1.1612   1.1709   1.1834   1.1926   1.1950   1.2158   1.2217
  1.2373   1.2561   1.2687   1.2788   1.2931   1.3044   1.3237   1.3420
  1.3578   1.3651   1.3962   1.4028   1.4056   1.4263   1.4302   1.4357
  1.4478   1.4507   1.4621   1.4674   1.4767   1.4832   1.4962   1.5007
  1.5065   1.5134   1.5196   1.5359   1.5567   1.5610   1.5915   1.6215
  1.6656   1.6720   1.7107   1.7254   1.7283   1.7416   1.7531   1.7779
  1.7814   1.7835   1.7934   1.8090   1.8144   1.8307   1.8353   1.8372
  1.8411   1.8495   1.8622   1.8639   1.8707   1.8817   1.8860   1.9094
  1.9138   1.9244   1.9297   1.9520   1.9682   1.9717   1.9802   1.9915
  1.9960   2.0033   2.0147   2.0255   2.0343   2.0452   2.0688   2.0833
  2.0918   2.1025   2.1108   2.1281   2.1373   2.1523   2.1560   2.1678
  2.1683   2.1810   2.1862   2.1919   2.2055   2.2189   2.2374   2.2416
  2.2474   2.2573   2.2700   2.2761   2.2795   2.3010   2.3066   2.3186
  2.3231   2.3310   2.3555   2.3589   2.3676   2.4235   2.4460   2.4922
  2.5123   2.5152   2.5235   2.5361   2.5676   2.5972   2.6077   2.6129
  2.6282   2.6391   2.6490   2.6649   2.6683   2.6863   2.7112   2.7272
  2.7381   2.7586   2.7668   2.7778   2.7908   2.7953   2.8111   2.8320
  2.8695   2.9008   2.9206   2.9355   2.9648   3.0118   3.0303   3.0563
  3.1400   3.1588   3.2739   3.3133   3.3345   3.4623   3.4891   4.0763
  4.0906   4.1075   4.1125   4.1293   4.1336   4.1738   4.1789   4.2238
  4.2537   4.2950   4.3106   4.3148   4.3346   4.3497   4.3984   4.4289
  4.5063   4.5346   4.7004   4.7302   4.7853   4.8206   5.2880
 --------------------------------------------------------------
 
          Ground-State Mulliken Net Atomic Charges

     Atom                 Charge (a.u.)
  ----------------------------------------
      1 C                    -0.470624
      2 C                     0.308064
      3 C                    -0.449751
      4 O                    -0.508744
      5 C                     0.792462
      6 N                    -0.647580
      7 C                     0.285596
      8 C                    -0.131847
      9 C                    -0.215521
     10 C                     0.204850
     11 C                    -0.299929
     12 C                     0.542068
     13 F                    -0.235276
     14 F                    -0.248367
     15 C                    -0.208774
     16 C                    -0.148386
     17 C                     0.294332
     18 C                    -0.134133
     19 C                    -0.145598
     20 C                    -0.122376
     21 C                    -0.140338
     22 C                    -0.155078
     23 O                    -0.510031
     24 C                    -0.468414
     25 H                     0.143338
     26 H                     0.190779
     27 H                     0.144832
     28 H                     0.152934
     29 H                     0.147182
     30 H                     0.156638
     31 H                     0.139189
     32 H                     0.140403
     33 H                     0.159635
     34 H                     0.131629
     35 H                     0.148289
     36 H                     0.148500
     37 H                     0.131193
     38 H                     0.126357
     39 H                     0.130210
     40 H                     0.144312
     41 H                     0.143175
     42 H                     0.188260
     43 H                     0.146538
  ----------------------------------------
  Sum of atomic charges =     0.000000

 -----------------------------------------------------------------
                    Cartesian Multipole Moments
 -----------------------------------------------------------------
    Charge (ESU x 10^10)
                 0.0000
    Dipole Moment (Debye)
         X      -0.7452      Y       0.0179      Z       1.0080
       Tot       1.2536
    Quadrupole Moments (Debye-Ang)
        XX    -147.2278     XY      -0.3086     YY    -123.3256
        XZ       2.9637     YZ      -1.4490     ZZ    -134.8956
    Octopole Moments (Debye-Ang^2)
       XXX     -27.9893    XXY     -20.0407    XYY       2.0346
       YYY      29.7291    XXZ      29.5350    XYZ       7.1115
       YYZ      -6.3249    XZZ     -30.1445    YZZ       4.1342
       ZZZ      -4.9327
    Hexadecapole Moments (Debye-Ang^3)
      XXXX   -7646.1952   XXXY     -69.2255   XXYY   -1847.4988
      XYYY      19.5113   YYYY   -4203.8597   XXXZ      92.6300
      XXYZ     -38.2261   XYYZ     -11.4325   YYYZ      39.7569
      XXZZ   -1304.2855   XYZZ      35.6041   YYZZ    -845.6919
      XZZZ      29.7936   YZZZ     -16.8163   ZZZZ    -607.4414
 -----------------------------------------------------------------
Archival summary:
1\1\nia0001.scinet.local\SP\ProcedureUnspecified\6-31G*\2211919\rhickman\FriFeb412:17:292022FriFeb412:17:292022\0\\#,ProcedureUnspecified,6-31G*,\\0,1\O\C,1,1.33724\O,2,1.20534,1,126.342\N,2,1.37919,1,110.202,3,179.158,0\C,4,1.41076,2,121.812,1,11.0661,0\C,5,1.39192,4,121.377,2,49.2232,0\H,6,1.07864,5,119.591,4,0.0614896,0\C,6,1.37908,5,120.538,4,179.82,0\H,8,1.07748,6,118.873,5,-179.914,0\C,5,1.39263,4,119.473,2,-132.107,0\H,10,1.07987,5,119.437,4,0.509795,0\C,10,1.37802,5,120.19,4,-179.516,0\H,12,1.08005,10,119.413,5,-179.632,0\C,8,1.39679,6,120.772,5,-0.602974,0\C,4,1.41543,2,120.383,1,-168.562,0\C,15,1.38962,4,121.285,2,39.78,0\H,16,1.07776,15,119.927,4,-0.745763,0\C,16,1.38323,15,119.815,4,179.842,0\H,18,1.07974,16,119.431,15,179.785,0\C,18,1.3843,16,120.527,15,-0.687757,0\H,20,1.07955,18,120.207,16,-179.759,0\C,20,1.38492,18,119.652,16,0.294869,0\H,22,1.07992,20,120.167,18,179.796,0\C,22,1.3819,20,120.268,18,0.265564,0\H,24,1.08024,22,120.347,20,179.509,0\C,1,1.44835,2,120.688,3,2.27214,0\C,14,1.45271,8,123.625,6,179.988,0\H,27,1.08059,14,116.454,8,178.949,0\C,27,1.32527,14,128.562,8,-1.26294,0\F,29,1.32804,27,128.109,14,0.0825448,0\F,29,1.33221,27,123.074,14,-179.887,0\C,26,1.52813,1,110.297,2,-62.2258,0\H,32,1.0863,26,109.649,1,-174.17,0\H,32,1.08648,26,110.257,1,65.846,0\H,32,1.0881,26,110.029,1,-54.3767,0\C,26,1.52815,1,110.355,2,60.8774,0\H,36,1.08627,26,109.603,1,175.624,0\H,36,1.0866,26,110.299,1,-64.4356,0\H,36,1.08815,26,110.202,1,55.8948,0\C,26,1.52915,1,103.684,2,179.347,0\H,40,1.08574,26,110.022,1,179.99,0\H,40,1.08671,26,110.002,1,59.666,0\H,40,1.08677,26,110.097,1,-59.6565,0\\\@

 Total job time:  134.82s(wall), 134.47s(cpu) 
 Fri Feb  4 12:17:29 2022

        *************************************************************
        *                                                           *
        *  Thank you very much for using Q-Chem.  Have a nice day.  *
        *                                                           *
        *************************************************************


