
Running Job 1 of 1 fragments/C114/conf-5/spe_input.inp
qchem fragments/C114/conf-5/spe_input.inp_249129.0 /gpfs/fs0/scratch/a/aspuru/rhickman/descriptor_computation/qchem249129/ 0
/scinet/niagara/software/commercial/qc52/exe/qcprog.exe_s fragments/C114/conf-5/spe_input.inp_249129.0 /gpfs/fs0/scratch/a/aspuru/rhickman/descriptor_computation/qchem249129/
                  Welcome to Q-Chem
     A Quantum Leap Into The Future Of Chemistry


 Q-Chem 5.2, Q-Chem, Inc., Pleasanton, CA (2019)

 License issued to: SRG Alan Aspuru-Guzik, University of Toronto

 Yihan Shao,  Zhengting Gan,  E. Epifanovsky,  A. T. B. Gilbert,  M. Wormit,  
 J. Kussmann,  A. W. Lange,  A. Behn,  Jia Deng,  Xintian Feng,  D. Ghosh,  
 M. Goldey,  P. R. Horn,  L. D. Jacobson,  I. Kaliman,  T. Kus,  A. Landau,  
 Jie Liu,  E. I. Proynov,  R. M. Richard,  R. P. Steele,  E. J. Sundstrom,  
 H. L. Woodcock III,  P. M. Zimmerman,  D. Zuev,  B. Albrecht,  E. Alguire,  
 S. A. Baeppler,  D. Barton,  Z. Benda,  Y. A. Bernard,  E. J. Berquist,  
 K. B. Bravaya,  H. Burton,  D. Casanova,  Chun-Min Chang,  Yunqing Chen,  
 A. Chien,  K. D. Closser,  M. P. Coons,  S. Coriani,  S. Dasgupta,  
 A. L. Dempwolff,  M. Diedenhofen,  Hainam Do,  R. G. Edgar,  Po-Tung Fang,  
 S. Faraji,  S. Fatehi,  Qingguo Feng,  K. D. Fenk,  J. Fosso-Tande,  
 J. Gayvert,  Qinghui Ge,  A. Ghysels,  G. Gidofalvi,  J. Gomes,  
 J. Gonthier,  A. Gunina,  D. Hait,  M. W. D. Hanson-Heine,  
 P. H. P. Harbach,  A. W. Hauser,  M. F. Herbst,  J. E. Herr,  
 E. G. Hohenstein,  Z. C. Holden,  Kerwin Hui,  B. C. Huynh,  T.-C. Jagau,  
 Hyunjun Ji,  B. Kaduk,  K. Khistyaev,  Jaehoon Kim,  P. Klunzinger,  K. Koh,  
 D. Kosenkov,  L. Koulias,  T. Kowalczyk,  C. M. Krauter,  A. Kunitsa,  
 Ka Un Lao,  A. Laurent,  K. V. Lawler,  Joonho Lee,  D. Lefrancois,  
 S. Lehtola,  D. S. Levine,  Yi-Pei Li,  You-Sheng Lin,  Fenglai Liu,  
 E. Livshits,  A. Luenser,  P. Manohar,  E. Mansoor,  S. F. Manzer,  
 Shan-Ping Mao,  Yuezhi Mao,  N. Mardirossian,  A. V. Marenich,  
 T. Markovich,  L. A. Martinez-Martinez,  S. A. Maurer,  N. J. Mayhall,  
 S. C. McKenzie,  J.-M. Mewes,  P. Morgante,  A. F. Morrison,  
 J. W. Mullinax,  K. Nanda,  T. S. Nguyen-Beck,  R. Olivares-Amaya,  
 J. A. Parkhill,  Zheng Pei,  T. M. Perrine,  F. Plasser,  P. Pokhilko,  
 S. Prager,  A. Prociuk,  E. Ramos,  D. R. Rehn,  F. Rob,  M. Scheurer,  
 M. Schneider,  N. Sergueev,  S. M. Sharada,  S. Sharma,  D. W. Small,  
 T. Stauch,  T. Stein,  Yu-Chuan Su,  A. J. W. Thom,  A. Tkatchenko,  
 T. Tsuchimochi,  N. M. Tubman,  L. Vogt,  M. L. Vidal,  O. Vydrov,  
 M. A. Watson,  J. Wenzel,  M. de Wergifosse,  T. A. Wesolowski,  A. White,  
 J. Witte,  A. Yamada,  Jun Yang,  K. Yao,  S. Yeganeh,  S. R. Yost,  
 Zhi-Qiang You,  A. Zech,  Igor Ying Zhang,  Xing Zhang,  Yan Zhao,  
 Ying Zhu,  B. R. Brooks,  G. K. L. Chan,  C. J. Cramer,  M. S. Gordon,  
 W. J. Hehre,  A. Klamt,  M. W. Schmidt,  C. D. Sherrill,  D. G. Truhlar,  
 A. Aspuru-Guzik,  R. Baer,  A. T. Bell,  N. A. Besley,  Jeng-Da Chai,  
 A. E. DePrince, III,  R. A. DiStasio Jr.,  A. Dreuw,  B. D. Dunietz,  
 T. R. Furlani,  Chao-Ping Hsu,  Yousung Jung,  Jing Kong,  D. S. Lambrecht,  
 WanZhen Liang,  C. Ochsenfeld,  V. A. Rassolov,  L. V. Slipchenko,  
 J. E. Subotnik,  T. Van Voorhis,  J. M. Herbert,  A. I. Krylov,  
 P. M. W. Gill,  M. Head-Gordon

 Contributors to earlier versions of Q-Chem not listed above: 
 R. D. Adamson,  B. Austin,  J. Baker,  G. J. O. Beran,  K. Brandhorst,  
 S. T. Brown,  E. F. C. Byrd,  A. K. Chakraborty,  C.-L. Cheng,  
 Siu Hung Chien,  D. M. Chipman,  D. L. Crittenden,  H. Dachsel,  
 R. J. Doerksen,  A. D. Dutoi,  L. Fusti-Molnar,  W. A. Goddard III,  
 A. Golubeva-Zadorozhnaya,  S. R. Gwaltney,  G. Hawkins,  A. Heyden,  
 S. Hirata,  G. Kedziora,  F. J. Keil,  C. Kelley,  Jihan Kim,  R. A. King,  
 R. Z. Khaliullin,  P. P. Korambath,  W. Kurlancheek,  A. M. Lee,  M. S. Lee,  
 S. V. Levchenko,  Ching Yeh Lin,  D. Liotard,  R. C. Lochan,  I. Lotan,  
 P. E. Maslen,  N. Nair,  D. P. O'Neill,  D. Neuhauser,  E. Neuscamman,  
 C. M. Oana,  R. Olson,  B. Peters,  R. Peverati,  P. A. Pieniazek,  
 Y. M. Rhee,  J. Ritchie,  M. A. Rohrdanz,  E. Rosta,  N. J. Russ,  
 H. F. Schaefer III,  N. E. Schultz,  N. Shenvi,  A. C. Simmonett,  A. Sodt,  
 D. Stuck,  K. S. Thanthiriwatte,  V. Vanovschi,  Tao Wang,  A. Warshel,  
 C. F. Williams,  Q. Wu,  X. Xu,  W. Zhang

 Please cite Q-Chem as follows:
 Y. Shao et al., Mol. Phys. 113, 184-215 (2015)
 DOI: 10.1080/00268976.2014.952696

 Q-Chem 5.2.1 for Intel X86 EM64T Linux

 Parts of Q-Chem use Armadillo 8.300.2 (Tropical Shenanigans).
 http://arma.sourceforge.net/

 Q-Chem begins on Mon Feb  7 08:24:21 2022  

Host: 
0

     Scratch files written to /gpfs/fs0/scratch/a/aspuru/rhickman/descriptor_computation/qchem249129//
 Jul1719 |scratch|qcdevops|jenkins|workspace|build_RNUM -1
Processing $rem in /scinet/niagara/software/commercial/qc52/config/preferences:
	 MEM_TOTAL  4000 
NAlpha2: 96
NElect   96
Mult     1

Checking the input file for inconsistencies... 	...done.

--------------------------------------------------------------
User input:
--------------------------------------------------------------
$molecule
0 1
C         3.49756595460000    1.32513016920000   -0.46080484990000
C         2.36301736060000    1.52858799680000    0.19453590840000
C         1.18710464400000    0.68109975440000    0.13282647090000
C        -0.11218336100000    1.15161186200000    0.20004724530000
N        -0.93992723830000    0.10608884640000    0.01190179760000
C        -2.39452293630000    0.13239730100000   -0.01045821560000
C        -2.85410959090000    1.04234317030000   -1.15449449450000
C        -2.89857236380000   -1.29066168620000   -0.23679556240000
C        -2.90002727980000    0.66225234900000    1.33532775920000
N        -0.26199479260000   -1.01849559520000   -0.16058516210000
C         1.02996585700000   -0.71687038760000   -0.08530356420000
C         1.98776530130000   -1.80305180470000   -0.15252985890000
C         3.19202340340000   -1.81436754590000    0.40287570290000
H         4.31929746400000    2.01770464880000   -0.39196043390000
H         3.64305257880000    0.46378581130000   -1.09011488740000
H         2.23852681080000    2.42620409330000    0.79023402530000
H        -0.46802221420000    2.15169301660000    0.34699400050000
H        -2.45596370350000    0.68421679090000   -2.10116884850000
H        -2.51478504940000    2.06404025860000   -1.00198676580000
H        -3.93926964900000    1.04557194520000   -1.21284183810000
H        -2.52064582580000   -1.67743289560000   -1.17851387010000
H        -3.98492453970000   -1.29871964460000   -0.25674181380000
H        -2.55029673510000   -1.94323652840000    0.55833575830000
H        -2.56494112570000    1.68258050270000    1.50506440670000
H        -2.53140871350000    0.03804642600000    2.14618576100000
H        -3.98652663800000    0.65020506260000    1.35393452530000
H         1.60622899800000   -2.68377366510000   -0.65298717680000
H         3.58065960020000   -0.96879123220000    0.94418972960000
H         3.83013903720000   -2.67940852670000    0.33863637780000
$end

$rem
BASIS = 6-31G*
GUI = 2
METHOD = B3LYP
PRINT_ORBITALS false
MOLDEN_FORMAT false
--------------------------------------------------------------
 ----------------------------------------------------------------
             Standard Nuclear Orientation (Angstroms)
    I     Atom           X                Y                Z
 ----------------------------------------------------------------
    1      C       3.4642135619     1.5041474106    -0.4626026702
    2      C       2.3205954519     1.6460478248     0.1931937922
    3      C       1.1921128467     0.7363314043     0.1318901461
    4      C      -0.1306491927     1.1360301468     0.1996477901
    5      N      -0.9008319065     0.0473641354     0.0117597511
    6      C      -2.3547360752    -0.0048718117    -0.0100306959
    7      C      -2.8632140234     0.8789908739    -1.1538302040
    8      C      -2.7813349314    -1.4530515915    -0.2362607611
    9      C      -2.8875715213     0.4968718437     1.3359858697
   10      N      -0.1632597516    -1.0389848234    -0.1610626275
   11      C       1.1105681111    -0.6680730868    -0.0862664720
   12      C       2.1255680461    -1.7009744942    -0.1539350446
   13      C       3.3288999523    -1.6473010839     0.4009995904
   14      H       4.2473949784     2.2400598038    -0.3940355114
   15      H       3.6557288407     0.6519369247    -1.0920236500
   16      H       2.1480747791     2.5356117789     0.7889969385
   17      H      -0.5398876353     2.1154422886     0.3467963802
   18      H      -2.4466920788     0.5429146064    -2.1006824606
   19      H      -2.5794668098     1.9175063554    -1.0013906895
   20      H      -3.9469895485     0.8236494552    -1.2117536671
   21      H      -2.3834549060    -1.8188224176    -1.1781508798
   22      H      -3.8656765716    -1.5197292365    -0.2557833797
   23      H      -2.3980337125    -2.0859114549     0.5586934667
   24      H      -2.6079758583     1.5337909136     1.5056558703
   25      H      -2.4854819503    -0.1065631631     2.1466606197
   26      H      -3.9718296576     0.4262011320     1.3550160720
   27      H       1.7919250990    -2.6009839374    -0.6542987714
   28      H       3.6715453747    -0.7820044740     0.9422150397
   29      H       4.0127479069    -2.4766383755     0.3364567121
 ----------------------------------------------------------------
 Molecular Point Group                 C1    NOp =  1
 Largest Abelian Subgroup              C1    NOp =  1
 Nuclear Repulsion Energy =         794.20989308 hartrees
 There are       48 alpha and       48 beta electrons
 Requested basis set is 6-31G(d)
 There are 84 shells and 227 basis functions

 Total QAlloc Memory Limit   4000 MB
 Mega-Array Size       188 MB
 MEM_STATIC part       192 MB
 A cutoff of  1.0D-08 yielded   2410 shell pairs
 There are     19469 function pairs
 Smallest overlap matrix eigenvalue = 7.01E-04

 Scale SEOQF with 1.000000e-01/1.000000e-01/1.000000e-01

 Standard Electronic Orientation quadrupole field applied
 Nucleus-field energy     =     0.0000000258 hartrees
 Guess from superposition of atomic densities
 Warning:  Energy on first SCF cycle will be non-variational
 SAD guess density has 96.000000 electrons

 -----------------------------------------------------------------------
  General SCF calculation program by
  Eric Jon Sundstrom, Paul Horn, Yuezhi Mao, Dmitri Zuev, Alec White,
  David Stuck, Shaama M.S., Shane Yost, Joonho Lee, David Small,
  Daniel Levine, Susi Lehtola, Hugh Burton, Evgeny Epifanovsky,
  Bang C. Huynh
 -----------------------------------------------------------------------
 Exchange:     0.2000 Hartree-Fock + 0.0800 Slater + 0.7200 B88
 Correlation:  0.1900 VWN1RPA + 0.8100 LYP
 Using SG-1 standard quadrature grid
 A restricted SCF calculation will be
 performed using DIIS
 SCF converges when DIIS error is below 1.0e-05
 ---------------------------------------
  Cycle       Energy         DIIS error
 ---------------------------------------
    1    -541.1869575426      5.43e-02  
    2    -538.0047238210      6.01e-03  
    3    -537.9469887743      6.82e-03  
    4    -538.2302573786      1.87e-03  
    5    -538.2509447214      4.20e-04  
    6    -538.2518624596      1.76e-04  
    7    -538.2520358400      5.86e-05  
    8    -538.2520548701      1.83e-05  
    9    -538.2520568666      4.27e-06  Convergence criterion met
 ---------------------------------------
 SCF time:   CPU 44.53s  wall 45.00s 
 SCF   energy in the final basis set =     -538.2520568666
 Total energy in the final basis set =     -538.2520568666
 
 --------------------------------------------------------------
 
                    Orbital Energies (a.u.)
 --------------------------------------------------------------
 
 Alpha MOs
 -- Occupied --
-14.4040 -14.3350 -10.2422 -10.2100 -10.1983 -10.1850 -10.1842 -10.1839
-10.1791 -10.1789 -10.1734 -10.1678 -10.1664  -1.0552  -0.8689  -0.8031
 -0.7954  -0.7522  -0.7308  -0.7034  -0.6948  -0.6279  -0.6213  -0.5740
 -0.5450  -0.5216  -0.5046  -0.4749  -0.4684  -0.4609  -0.4450  -0.4283
 -0.4250  -0.4130  -0.4011  -0.3953  -0.3898  -0.3774  -0.3751  -0.3568
 -0.3477  -0.3462  -0.3414  -0.2944  -0.2899  -0.2716  -0.2258  -0.2034
 -- Virtual --
 -0.0107   0.0141   0.0599   0.0758   0.1094   0.1181   0.1253   0.1403
  0.1453   0.1547   0.1558   0.1579   0.1617   0.1692   0.1841   0.1911
  0.1953   0.1991   0.2064   0.2121   0.2207   0.2227   0.2404   0.2506
  0.2708   0.2967   0.3313   0.3442   0.3569   0.3687   0.3837   0.4275
  0.4525   0.4888   0.4953   0.4976   0.5126   0.5279   0.5452   0.5507
  0.5568   0.5671   0.5819   0.6025   0.6167   0.6271   0.6293   0.6451
  0.6584   0.6703   0.6709   0.6768   0.6909   0.7010   0.7150   0.7200
  0.7388   0.7445   0.7829   0.8031   0.8348   0.8477   0.8547   0.8574
  0.8703   0.8759   0.8841   0.8885   0.8967   0.8991   0.9028   0.9068
  0.9234   0.9340   0.9405   0.9504   0.9670   0.9786   0.9833   0.9936
  1.0044   1.0230   1.0269   1.0384   1.0712   1.0848   1.0967   1.1371
  1.1556   1.1958   1.2298   1.2467   1.2853   1.3115   1.3222   1.3284
  1.3785   1.4122   1.4424   1.4495   1.4639   1.4941   1.5216   1.5365
  1.5962   1.6098   1.6208   1.6726   1.6825   1.7058   1.7190   1.7210
  1.7540   1.8277   1.8557   1.8734   1.8861   1.9046   1.9092   1.9326
  1.9527   1.9800   2.0217   2.0229   2.0343   2.0661   2.0838   2.0972
  2.1159   2.1352   2.1524   2.1797   2.1997   2.2180   2.2279   2.2471
  2.2539   2.2645   2.2741   2.2791   2.2990   2.3211   2.3398   2.3762
  2.3813   2.4150   2.4575   2.4635   2.4996   2.5450   2.6012   2.6213
  2.6452   2.6553   2.6817   2.7206   2.7410   2.7912   2.7941   2.8043
  2.9031   2.9694   3.0366   3.1650   3.1948   3.3260   3.8937   4.0989
  4.1188   4.1390   4.1990   4.2171   4.2609   4.2996   4.3167   4.3452
  4.4290   4.6872   4.7411
 --------------------------------------------------------------
 
          Ground-State Mulliken Net Atomic Charges

     Atom                 Charge (a.u.)
  ----------------------------------------
      1 C                    -0.344315
      2 C                    -0.134889
      3 C                    -0.014964
      4 C                     0.030613
      5 N                    -0.220929
      6 C                     0.167326
      7 C                    -0.437666
      8 C                    -0.436563
      9 C                    -0.438602
     10 N                    -0.370864
     11 C                     0.267016
     12 C                    -0.101182
     13 C                    -0.350678
     14 H                     0.135283
     15 H                     0.153881
     16 H                     0.123127
     17 H                     0.154906
     18 H                     0.163370
     19 H                     0.145446
     20 H                     0.150614
     21 H                     0.167062
     22 H                     0.138923
     23 H                     0.167912
     24 H                     0.144815
     25 H                     0.163682
     26 H                     0.151033
     27 H                     0.135666
     28 H                     0.153287
     29 H                     0.136690
  ----------------------------------------
  Sum of atomic charges =     0.000000

 -----------------------------------------------------------------
                    Cartesian Multipole Moments
 -----------------------------------------------------------------
    Charge (ESU x 10^10)
                 0.0000
    Dipole Moment (Debye)
         X      -2.0319      Y       1.5656      Z       0.2440
       Tot       2.5767
    Quadrupole Moments (Debye-Ang)
        XX     -71.5093     XY      -1.3516     YY     -77.0590
        XZ      -0.1618     YZ       1.8906     ZZ     -80.1168
    Octopole Moments (Debye-Ang^2)
       XXX     -15.4052    XXY      -1.5312    XYY       3.0593
       YYY       5.0980    XXZ      -0.3642    XYZ       2.8149
       YYZ       2.2659    XZZ      -6.8386    YZZ      -1.8743
       ZZZ      -1.3777
    Hexadecapole Moments (Debye-Ang^3)
      XXXX   -2673.1036   XXXY       4.6089   XXYY    -575.1866
      XYYY     -11.7832   YYYY    -787.4690   XXXZ      -0.6730
      XXYZ       0.6050   XYYZ      -0.1887   YYYZ      18.7743
      XXZZ    -523.5775   XYZZ       3.2947   YYZZ    -189.6475
      XZZZ       0.6863   YZZZ       2.9211   ZZZZ    -287.7573
 -----------------------------------------------------------------
Archival summary:
1\1\nia0005.scinet.local\SP\ProcedureUnspecified\6-31G*\21116\rhickman\MonFeb708:25:062022MonFeb708:25:062022\0\\#,ProcedureUnspecified,6-31G*,\\0,1\N\N,1,1.3244\C,2,1.32884,1,107.311\C,1,1.34673,2,111.272,3,0.041587,0\H,4,1.07162,1,122.655,2,179.301,0\C,4,1.38349,1,107.843,2,0.618447,0\C,3,1.44972,2,118.012,1,175.872,0\H,7,1.08245,3,113.464,2,23.8713,0\C,7,1.32621,3,125.937,2,-151.636,0\H,9,1.0766,7,122.118,3,-2.05214,0\H,9,1.07685,7,121.329,3,177.541,0\C,6,1.4508,4,124.088,1,175.48,0\H,12,1.08447,6,114.445,4,30.7519,0\C,12,1.32592,6,125.654,4,-145.277,0\H,14,1.07662,12,121.823,6,-1.89966,0\H,14,1.07687,12,121.511,6,177.865,0\C,1,1.45501,2,121.674,3,-179.912,0\C,17,1.52656,1,108.392,2,0.660074,0\H,18,1.08593,17,110.223,1,-59.6359,0\H,18,1.08599,17,110.225,1,59.5086,0\H,18,1.08657,17,109.862,1,179.946,0\C,17,1.53213,1,108.82,2,120.393,0\H,22,1.08673,17,109.942,1,-177.63,0\H,22,1.08727,17,111.099,1,62.3609,0\H,22,1.08766,17,110.154,1,-57.9298,0\C,17,1.53233,1,108.787,2,-119.066,0\H,26,1.08673,17,109.959,1,177.827,0\H,26,1.08732,17,111.08,1,-62.1269,0\H,26,1.08764,17,110.152,1,58.1129,0\\\@

 Total job time:  44.89s(wall), 44.74s(cpu) 
 Mon Feb  7 08:25:06 2022

        *************************************************************
        *                                                           *
        *  Thank you very much for using Q-Chem.  Have a nice day.  *
        *                                                           *
        *************************************************************


