
Running Job 1 of 1 fragments/C012/conf-0/spe_input.inp
qchem fragments/C012/conf-0/spe_input.inp_161811.0 /gpfs/fs0/scratch/a/aspuru/rhickman/descriptor_computation/qchem161811/ 0
/scinet/niagara/software/commercial/qc52/exe/qcprog.exe_s fragments/C012/conf-0/spe_input.inp_161811.0 /gpfs/fs0/scratch/a/aspuru/rhickman/descriptor_computation/qchem161811/
                  Welcome to Q-Chem
     A Quantum Leap Into The Future Of Chemistry


 Q-Chem 5.2, Q-Chem, Inc., Pleasanton, CA (2019)

 License issued to: SRG Alan Aspuru-Guzik, University of Toronto

 Yihan Shao,  Zhengting Gan,  E. Epifanovsky,  A. T. B. Gilbert,  M. Wormit,  
 J. Kussmann,  A. W. Lange,  A. Behn,  Jia Deng,  Xintian Feng,  D. Ghosh,  
 M. Goldey,  P. R. Horn,  L. D. Jacobson,  I. Kaliman,  T. Kus,  A. Landau,  
 Jie Liu,  E. I. Proynov,  R. M. Richard,  R. P. Steele,  E. J. Sundstrom,  
 H. L. Woodcock III,  P. M. Zimmerman,  D. Zuev,  B. Albrecht,  E. Alguire,  
 S. A. Baeppler,  D. Barton,  Z. Benda,  Y. A. Bernard,  E. J. Berquist,  
 K. B. Bravaya,  H. Burton,  D. Casanova,  Chun-Min Chang,  Yunqing Chen,  
 A. Chien,  K. D. Closser,  M. P. Coons,  S. Coriani,  S. Dasgupta,  
 A. L. Dempwolff,  M. Diedenhofen,  Hainam Do,  R. G. Edgar,  Po-Tung Fang,  
 S. Faraji,  S. Fatehi,  Qingguo Feng,  K. D. Fenk,  J. Fosso-Tande,  
 J. Gayvert,  Qinghui Ge,  A. Ghysels,  G. Gidofalvi,  J. Gomes,  
 J. Gonthier,  A. Gunina,  D. Hait,  M. W. D. Hanson-Heine,  
 P. H. P. Harbach,  A. W. Hauser,  M. F. Herbst,  J. E. Herr,  
 E. G. Hohenstein,  Z. C. Holden,  Kerwin Hui,  B. C. Huynh,  T.-C. Jagau,  
 Hyunjun Ji,  B. Kaduk,  K. Khistyaev,  Jaehoon Kim,  P. Klunzinger,  K. Koh,  
 D. Kosenkov,  L. Koulias,  T. Kowalczyk,  C. M. Krauter,  A. Kunitsa,  
 Ka Un Lao,  A. Laurent,  K. V. Lawler,  Joonho Lee,  D. Lefrancois,  
 S. Lehtola,  D. S. Levine,  Yi-Pei Li,  You-Sheng Lin,  Fenglai Liu,  
 E. Livshits,  A. Luenser,  P. Manohar,  E. Mansoor,  S. F. Manzer,  
 Shan-Ping Mao,  Yuezhi Mao,  N. Mardirossian,  A. V. Marenich,  
 T. Markovich,  L. A. Martinez-Martinez,  S. A. Maurer,  N. J. Mayhall,  
 S. C. McKenzie,  J.-M. Mewes,  P. Morgante,  A. F. Morrison,  
 J. W. Mullinax,  K. Nanda,  T. S. Nguyen-Beck,  R. Olivares-Amaya,  
 J. A. Parkhill,  Zheng Pei,  T. M. Perrine,  F. Plasser,  P. Pokhilko,  
 S. Prager,  A. Prociuk,  E. Ramos,  D. R. Rehn,  F. Rob,  M. Scheurer,  
 M. Schneider,  N. Sergueev,  S. M. Sharada,  S. Sharma,  D. W. Small,  
 T. Stauch,  T. Stein,  Yu-Chuan Su,  A. J. W. Thom,  A. Tkatchenko,  
 T. Tsuchimochi,  N. M. Tubman,  L. Vogt,  M. L. Vidal,  O. Vydrov,  
 M. A. Watson,  J. Wenzel,  M. de Wergifosse,  T. A. Wesolowski,  A. White,  
 J. Witte,  A. Yamada,  Jun Yang,  K. Yao,  S. Yeganeh,  S. R. Yost,  
 Zhi-Qiang You,  A. Zech,  Igor Ying Zhang,  Xing Zhang,  Yan Zhao,  
 Ying Zhu,  B. R. Brooks,  G. K. L. Chan,  C. J. Cramer,  M. S. Gordon,  
 W. J. Hehre,  A. Klamt,  M. W. Schmidt,  C. D. Sherrill,  D. G. Truhlar,  
 A. Aspuru-Guzik,  R. Baer,  A. T. Bell,  N. A. Besley,  Jeng-Da Chai,  
 A. E. DePrince, III,  R. A. DiStasio Jr.,  A. Dreuw,  B. D. Dunietz,  
 T. R. Furlani,  Chao-Ping Hsu,  Yousung Jung,  Jing Kong,  D. S. Lambrecht,  
 WanZhen Liang,  C. Ochsenfeld,  V. A. Rassolov,  L. V. Slipchenko,  
 J. E. Subotnik,  T. Van Voorhis,  J. M. Herbert,  A. I. Krylov,  
 P. M. W. Gill,  M. Head-Gordon

 Contributors to earlier versions of Q-Chem not listed above: 
 R. D. Adamson,  B. Austin,  J. Baker,  G. J. O. Beran,  K. Brandhorst,  
 S. T. Brown,  E. F. C. Byrd,  A. K. Chakraborty,  C.-L. Cheng,  
 Siu Hung Chien,  D. M. Chipman,  D. L. Crittenden,  H. Dachsel,  
 R. J. Doerksen,  A. D. Dutoi,  L. Fusti-Molnar,  W. A. Goddard III,  
 A. Golubeva-Zadorozhnaya,  S. R. Gwaltney,  G. Hawkins,  A. Heyden,  
 S. Hirata,  G. Kedziora,  F. J. Keil,  C. Kelley,  Jihan Kim,  R. A. King,  
 R. Z. Khaliullin,  P. P. Korambath,  W. Kurlancheek,  A. M. Lee,  M. S. Lee,  
 S. V. Levchenko,  Ching Yeh Lin,  D. Liotard,  R. C. Lochan,  I. Lotan,  
 P. E. Maslen,  N. Nair,  D. P. O'Neill,  D. Neuhauser,  E. Neuscamman,  
 C. M. Oana,  R. Olson,  B. Peters,  R. Peverati,  P. A. Pieniazek,  
 Y. M. Rhee,  J. Ritchie,  M. A. Rohrdanz,  E. Rosta,  N. J. Russ,  
 H. F. Schaefer III,  N. E. Schultz,  N. Shenvi,  A. C. Simmonett,  A. Sodt,  
 D. Stuck,  K. S. Thanthiriwatte,  V. Vanovschi,  Tao Wang,  A. Warshel,  
 C. F. Williams,  Q. Wu,  X. Xu,  W. Zhang

 Please cite Q-Chem as follows:
 Y. Shao et al., Mol. Phys. 113, 184-215 (2015)
 DOI: 10.1080/00268976.2014.952696

 Q-Chem 5.2.1 for Intel X86 EM64T Linux

 Parts of Q-Chem use Armadillo 8.300.2 (Tropical Shenanigans).
 http://arma.sourceforge.net/

 Q-Chem begins on Mon Feb  7 18:12:12 2022  

Host: 
0

     Scratch files written to /gpfs/fs0/scratch/a/aspuru/rhickman/descriptor_computation/qchem161811//
 Jul1719 |scratch|qcdevops|jenkins|workspace|build_RNUM -1
Processing $rem in /scinet/niagara/software/commercial/qc52/config/preferences:
	 MEM_TOTAL  4000 
NAlpha2: 98
NElect   98
Mult     1

Checking the input file for inconsistencies... 	...done.

--------------------------------------------------------------
User input:
--------------------------------------------------------------
$molecule
0 1
C         3.54698119730000   -1.20220562330000    0.00029973640000
C         2.41971193210000   -1.90728852020000   -0.00059996470000
C         1.07613146070000   -1.36328104640000   -0.00016280310000
C        -0.01724745470000   -2.21078803850000    0.00025323640000
C        -1.34269750300000   -1.76572747800000    0.00067637320000
C        -1.67620195490000   -0.42595491180000    0.00060600980000
C        -3.02703010050000    0.10386490810000    0.00097677260000
C        -4.15187574230000   -0.60484389970000   -0.00149736150000
C        -0.58572983090000    0.48125615690000    0.00029758280000
N        -0.67059703480000    1.81127443960000    0.00028320230000
S         0.81223841330000    2.42634033780000   -0.00019044640000
N         1.63797283050000    1.04721171000000   -0.00040272000000
C         0.78143278080000    0.02555319610000   -0.00012211400000
H         4.50841545020000   -1.68733431880000   -0.00014347190000
H         3.53561516640000   -0.12677559790000    0.00141543700000
H         2.46187922840000   -2.99031919860000   -0.00166724100000
H         0.16099754950000   -3.27718492820000    0.00036155800000
H        -2.12725246930000   -2.50655746580000    0.00112962690000
H        -3.07084510220000    1.18482748590000    0.00309733190000
H        -4.16393427290000   -1.68156451930000   -0.00411820000000
H        -5.11384640560000   -0.12243596800000   -0.00102538950000
$end

$rem
BASIS = 6-31G*
GUI = 2
METHOD = B3LYP
PRINT_ORBITALS false
MOLDEN_FORMAT false
--------------------------------------------------------------
 ----------------------------------------------------------------
             Standard Nuclear Orientation (Angstroms)
    I     Atom           X                Y                Z
 ----------------------------------------------------------------
    1      C       3.5868338998     1.0793479399    -0.0002869739
    2      C       2.4727231615     1.8050442980     0.0005823760
    3      C       1.1193645881     1.2858399230     0.0001412195
    4      C       0.0417579426     2.1533129446    -0.0003080621
    5      C      -1.2916534458     1.7327052925    -0.0007372694
    6      C      -1.6497425448     0.3992931502    -0.0006398933
    7      C      -3.0100866284    -0.1055926702    -0.0010150706
    8      C      -4.1217074844     0.6236844473     0.0014286581
    9      C      -0.5761402734    -0.5278203901    -0.0002968723
   10      N      -0.6854547794    -1.8560528290    -0.0002526264
   11      S       0.7858175726    -2.4982869449     0.0002536848
   12      N       1.6367772100    -1.1345784701     0.0004441272
   13      C       0.7991723577    -0.0973393141     0.0001291642
   14      H       4.5570279967     1.5467119177     0.0001568651
   15      H       3.5556905276     0.0043088376    -0.0013778167
   16      H       2.5348023808     2.8871162706     0.0016249994
   17      H       0.2395859386     3.2162511773    -0.0004389647
   18      H      -2.0624503786     2.4878394721    -0.0012174606
   19      H      -3.0737752253    -1.1855666121    -0.0031110454
   20      H      -4.1139609929     1.7004447846     0.0040243187
   21      H      -5.0923878604     0.1590506380     0.0009559855
 ----------------------------------------------------------------
 Molecular Point Group                 C1    NOp =  1
 Largest Abelian Subgroup              C1    NOp =  1
 Nuclear Repulsion Energy =         820.18494962 hartrees
 There are       49 alpha and       49 beta electrons
 Requested basis set is 6-31G(d)
 There are 69 shells and 215 basis functions

 Total QAlloc Memory Limit   4000 MB
 Mega-Array Size       188 MB
 MEM_STATIC part       192 MB
 A cutoff of  1.0D-08 yielded   1672 shell pairs
 There are     17822 function pairs
 Smallest overlap matrix eigenvalue = 2.60E-04

 Scale SEOQF with 1.000000e-01/1.000000e-01/1.000000e+00

 Standard Electronic Orientation quadrupole field applied
 Nucleus-field energy     =     0.0000000336 hartrees
 Guess from superposition of atomic densities
 Warning:  Energy on first SCF cycle will be non-variational
 SAD guess density has 98.000000 electrons

 -----------------------------------------------------------------------
  General SCF calculation program by
  Eric Jon Sundstrom, Paul Horn, Yuezhi Mao, Dmitri Zuev, Alec White,
  David Stuck, Shaama M.S., Shane Yost, Joonho Lee, David Small,
  Daniel Levine, Susi Lehtola, Hugh Burton, Evgeny Epifanovsky,
  Bang C. Huynh
 -----------------------------------------------------------------------
 Exchange:     0.2000 Hartree-Fock + 0.0800 Slater + 0.7200 B88
 Correlation:  0.1900 VWN1RPA + 0.8100 LYP
 Using SG-1 standard quadrature grid
 A restricted SCF calculation will be
 performed using DIIS
 SCF converges when DIIS error is below 1.0e-05
 ---------------------------------------
  Cycle       Energy         DIIS error
 ---------------------------------------
    1    -896.8695742906      5.66e-02  
    2    -893.2800957969      6.02e-03  
    3    -893.1050727434      7.94e-03  
    4    -893.4976802796      1.55e-03  
    5    -893.5099718924      8.09e-04  
    6    -893.5135936281      2.94e-04  
    7    -893.5140102586      1.17e-04  
    8    -893.5140775841      4.60e-05  
    9    -893.5140895533      1.07e-05  
   10    -893.5140902332      3.37e-06  Convergence criterion met
 ---------------------------------------
 SCF time:   CPU 36.52s  wall 36.00s 
 SCF   energy in the final basis set =     -893.5140902332
 Total energy in the final basis set =     -893.5140902332
 
 --------------------------------------------------------------
 
                    Orbital Energies (a.u.)
 --------------------------------------------------------------
 
 Alpha MOs
 -- Occupied --
-88.9749 -14.3637 -14.3626 -10.2388 -10.2381 -10.2104 -10.2099 -10.2038
-10.2028 -10.1932 -10.1913 -10.1864 -10.1761  -8.0310  -5.9962  -5.9904
 -5.9886  -1.0304  -0.8938  -0.8733  -0.8097  -0.7719  -0.7693  -0.7224
 -0.6598  -0.6317  -0.6112  -0.5835  -0.5442  -0.5132  -0.5059  -0.4843
 -0.4607  -0.4587  -0.4443  -0.4247  -0.4027  -0.3866  -0.3818  -0.3737
 -0.3724  -0.3592  -0.3511  -0.3128  -0.2954  -0.2895  -0.2733  -0.2676
 -0.2093
 -- Virtual --
 -0.0906  -0.0278   0.0075   0.0110   0.0268   0.0816   0.0943   0.0958
  0.1184   0.1347   0.1480   0.1770   0.1892   0.1967   0.2037   0.2163
  0.2469   0.2616   0.2746   0.2771   0.2911   0.3253   0.3327   0.3420
  0.3485   0.3751   0.3884   0.4035   0.4228   0.4332   0.4868   0.4981
  0.5055   0.5268   0.5293   0.5439   0.5612   0.5631   0.5773   0.5775
  0.5834   0.6029   0.6197   0.6201   0.6221   0.6236   0.6436   0.6457
  0.6706   0.6832   0.6984   0.7014   0.7134   0.7363   0.7750   0.7842
  0.8087   0.8152   0.8263   0.8583   0.8653   0.8658   0.8858   0.8887
  0.8916   0.9148   0.9376   0.9454   0.9527   0.9730   0.9984   1.0019
  1.0375   1.0521   1.0747   1.0846   1.0868   1.1101   1.1396   1.1577
  1.1867   1.1911   1.2177   1.2343   1.2815   1.3094   1.3201   1.3387
  1.3522   1.3654   1.4093   1.4134   1.4483   1.4629   1.4827   1.4965
  1.5084   1.5114   1.5703   1.6662   1.6706   1.6720   1.7029   1.7760
  1.7820   1.8110   1.8259   1.8276   1.8436   1.8450   1.9188   1.9282
  1.9441   1.9841   2.0007   2.0216   2.0228   2.0270   2.0749   2.1384
  2.1390   2.1478   2.2062   2.2332   2.2503   2.2737   2.2738   2.3044
  2.3151   2.3467   2.3536   2.3860   2.4384   2.4448   2.4951   2.5080
  2.5519   2.6211   2.6228   2.6331   2.6650   2.6746   2.7158   2.7463
  2.7559   2.7908   2.8865   2.9446   3.0038   3.0393   3.1283   3.3165
  3.4545   3.8733   4.0000   4.0213   4.0785   4.1235   4.1304   4.1825
  4.2091   4.2432   4.3191   4.3937   4.5336   4.8142
 --------------------------------------------------------------
 
          Ground-State Mulliken Net Atomic Charges

     Atom                 Charge (a.u.)
  ----------------------------------------
      1 C                    -0.355762
      2 C                    -0.116764
      3 C                     0.209421
      4 C                    -0.227145
      5 C                    -0.217102
      6 C                     0.191488
      7 C                    -0.104009
      8 C                    -0.348716
      9 C                     0.157167
     10 N                    -0.564653
     11 S                     0.582647
     12 N                    -0.580468
     13 C                     0.190671
     14 H                     0.139675
     15 H                     0.189293
     16 H                     0.125143
     17 H                     0.137654
     18 H                     0.135786
     19 H                     0.162012
     20 H                     0.142933
     21 H                     0.150729
  ----------------------------------------
  Sum of atomic charges =     0.000000

 -----------------------------------------------------------------
                    Cartesian Multipole Moments
 -----------------------------------------------------------------
    Charge (ESU x 10^10)
                -0.0000
    Dipole Moment (Debye)
         X      -0.4924      Y       1.2587      Z      -0.0003
       Tot       1.3516
    Quadrupole Moments (Debye-Ang)
        XX     -77.4868     XY      -2.1663     YY     -73.1309
        XZ      -0.0018     YZ       0.0066     ZZ     -84.4171
    Octopole Moments (Debye-Ang^2)
       XXX     -11.8917    XXY       6.9940    XYY       6.4232
       YYY      -0.1650    XXZ       0.0067    XYZ      -0.0101
       YYZ       0.0112    XZZ       2.6819    YZZ      -8.6741
       ZZZ       0.0009
    Hexadecapole Moments (Debye-Ang^3)
      XXXX   -2054.8324   XXXY       9.0869   XXYY    -554.4956
      XYYY     -27.3551   YYYY   -1180.9829   XXXZ      -0.0708
      XXYZ       0.1076   XYYZ       0.0108   YYYZ       0.0158
      XXZZ    -426.0184   XYZZ      -5.8015   YYZZ    -237.6261
      XZZZ       0.0045   YZZZ       0.0023   ZZZZ     -86.9291
 -----------------------------------------------------------------
Archival summary:
1\1\nia1977.scinet.local\SP\ProcedureUnspecified\6-31G*\12108\rhickman\MonFeb718:12:492022MonFeb718:12:492022\0\\#,ProcedureUnspecified,6-31G*,\\0,1\S\N,1,1.60534\C,2,1.33272,1,108.877\C,3,1.41851,2,126.107,1,-179.997,0\C,4,1.38066,3,115.78,2,-179.994,0\H,5,1.07905,4,119.38,3,179.986,0\C,5,1.39818,4,122.539,3,-0.010007,0\H,7,1.08119,5,118.05,4,179.999,0\C,7,1.38338,5,123.659,4,0.00537145,0\C,9,1.41976,7,115.8,5,0,0\N,10,1.33321,9,128.044,7,179.997,0\C,9,1.44954,7,120.177,5,-180,0\H,12,1.08385,9,114.272,7,0.0639833,0\C,12,1.32962,9,125.932,7,-179.93,0\H,14,1.07549,12,121.42,9,-0.00347125,0\H,14,1.0769,12,121.2,9,-179.998,0\C,4,1.45102,3,118.825,2,-0.00153311,0\H,17,1.08185,4,113.737,3,-0.122411,0\C,17,1.32949,4,126.371,3,179.851,0\H,19,1.07615,17,121.154,4,-179.997,0\H,19,1.07679,17,122.855,4,-0,0\\\@

 Total job time:  36.99s(wall), 36.69s(cpu) 
 Mon Feb  7 18:12:49 2022

        *************************************************************
        *                                                           *
        *  Thank you very much for using Q-Chem.  Have a nice day.  *
        *                                                           *
        *************************************************************


