
Running Job 1 of 1 fragments/B029/conf-1/spe_input.inp
qchem fragments/B029/conf-1/spe_input.inp_167962.0 /gpfs/fs0/scratch/a/aspuru/rhickman/descriptor_computation/qchem167962/ 0
/scinet/niagara/software/commercial/qc52/exe/qcprog.exe_s fragments/B029/conf-1/spe_input.inp_167962.0 /gpfs/fs0/scratch/a/aspuru/rhickman/descriptor_computation/qchem167962/
                  Welcome to Q-Chem
     A Quantum Leap Into The Future Of Chemistry


 Q-Chem 5.2, Q-Chem, Inc., Pleasanton, CA (2019)

 License issued to: SRG Alan Aspuru-Guzik, University of Toronto

 Yihan Shao,  Zhengting Gan,  E. Epifanovsky,  A. T. B. Gilbert,  M. Wormit,  
 J. Kussmann,  A. W. Lange,  A. Behn,  Jia Deng,  Xintian Feng,  D. Ghosh,  
 M. Goldey,  P. R. Horn,  L. D. Jacobson,  I. Kaliman,  T. Kus,  A. Landau,  
 Jie Liu,  E. I. Proynov,  R. M. Richard,  R. P. Steele,  E. J. Sundstrom,  
 H. L. Woodcock III,  P. M. Zimmerman,  D. Zuev,  B. Albrecht,  E. Alguire,  
 S. A. Baeppler,  D. Barton,  Z. Benda,  Y. A. Bernard,  E. J. Berquist,  
 K. B. Bravaya,  H. Burton,  D. Casanova,  Chun-Min Chang,  Yunqing Chen,  
 A. Chien,  K. D. Closser,  M. P. Coons,  S. Coriani,  S. Dasgupta,  
 A. L. Dempwolff,  M. Diedenhofen,  Hainam Do,  R. G. Edgar,  Po-Tung Fang,  
 S. Faraji,  S. Fatehi,  Qingguo Feng,  K. D. Fenk,  J. Fosso-Tande,  
 J. Gayvert,  Qinghui Ge,  A. Ghysels,  G. Gidofalvi,  J. Gomes,  
 J. Gonthier,  A. Gunina,  D. Hait,  M. W. D. Hanson-Heine,  
 P. H. P. Harbach,  A. W. Hauser,  M. F. Herbst,  J. E. Herr,  
 E. G. Hohenstein,  Z. C. Holden,  Kerwin Hui,  B. C. Huynh,  T.-C. Jagau,  
 Hyunjun Ji,  B. Kaduk,  K. Khistyaev,  Jaehoon Kim,  P. Klunzinger,  K. Koh,  
 D. Kosenkov,  L. Koulias,  T. Kowalczyk,  C. M. Krauter,  A. Kunitsa,  
 Ka Un Lao,  A. Laurent,  K. V. Lawler,  Joonho Lee,  D. Lefrancois,  
 S. Lehtola,  D. S. Levine,  Yi-Pei Li,  You-Sheng Lin,  Fenglai Liu,  
 E. Livshits,  A. Luenser,  P. Manohar,  E. Mansoor,  S. F. Manzer,  
 Shan-Ping Mao,  Yuezhi Mao,  N. Mardirossian,  A. V. Marenich,  
 T. Markovich,  L. A. Martinez-Martinez,  S. A. Maurer,  N. J. Mayhall,  
 S. C. McKenzie,  J.-M. Mewes,  P. Morgante,  A. F. Morrison,  
 J. W. Mullinax,  K. Nanda,  T. S. Nguyen-Beck,  R. Olivares-Amaya,  
 J. A. Parkhill,  Zheng Pei,  T. M. Perrine,  F. Plasser,  P. Pokhilko,  
 S. Prager,  A. Prociuk,  E. Ramos,  D. R. Rehn,  F. Rob,  M. Scheurer,  
 M. Schneider,  N. Sergueev,  S. M. Sharada,  S. Sharma,  D. W. Small,  
 T. Stauch,  T. Stein,  Yu-Chuan Su,  A. J. W. Thom,  A. Tkatchenko,  
 T. Tsuchimochi,  N. M. Tubman,  L. Vogt,  M. L. Vidal,  O. Vydrov,  
 M. A. Watson,  J. Wenzel,  M. de Wergifosse,  T. A. Wesolowski,  A. White,  
 J. Witte,  A. Yamada,  Jun Yang,  K. Yao,  S. Yeganeh,  S. R. Yost,  
 Zhi-Qiang You,  A. Zech,  Igor Ying Zhang,  Xing Zhang,  Yan Zhao,  
 Ying Zhu,  B. R. Brooks,  G. K. L. Chan,  C. J. Cramer,  M. S. Gordon,  
 W. J. Hehre,  A. Klamt,  M. W. Schmidt,  C. D. Sherrill,  D. G. Truhlar,  
 A. Aspuru-Guzik,  R. Baer,  A. T. Bell,  N. A. Besley,  Jeng-Da Chai,  
 A. E. DePrince, III,  R. A. DiStasio Jr.,  A. Dreuw,  B. D. Dunietz,  
 T. R. Furlani,  Chao-Ping Hsu,  Yousung Jung,  Jing Kong,  D. S. Lambrecht,  
 WanZhen Liang,  C. Ochsenfeld,  V. A. Rassolov,  L. V. Slipchenko,  
 J. E. Subotnik,  T. Van Voorhis,  J. M. Herbert,  A. I. Krylov,  
 P. M. W. Gill,  M. Head-Gordon

 Contributors to earlier versions of Q-Chem not listed above: 
 R. D. Adamson,  B. Austin,  J. Baker,  G. J. O. Beran,  K. Brandhorst,  
 S. T. Brown,  E. F. C. Byrd,  A. K. Chakraborty,  C.-L. Cheng,  
 Siu Hung Chien,  D. M. Chipman,  D. L. Crittenden,  H. Dachsel,  
 R. J. Doerksen,  A. D. Dutoi,  L. Fusti-Molnar,  W. A. Goddard III,  
 A. Golubeva-Zadorozhnaya,  S. R. Gwaltney,  G. Hawkins,  A. Heyden,  
 S. Hirata,  G. Kedziora,  F. J. Keil,  C. Kelley,  Jihan Kim,  R. A. King,  
 R. Z. Khaliullin,  P. P. Korambath,  W. Kurlancheek,  A. M. Lee,  M. S. Lee,  
 S. V. Levchenko,  Ching Yeh Lin,  D. Liotard,  R. C. Lochan,  I. Lotan,  
 P. E. Maslen,  N. Nair,  D. P. O'Neill,  D. Neuhauser,  E. Neuscamman,  
 C. M. Oana,  R. Olson,  B. Peters,  R. Peverati,  P. A. Pieniazek,  
 Y. M. Rhee,  J. Ritchie,  M. A. Rohrdanz,  E. Rosta,  N. J. Russ,  
 H. F. Schaefer III,  N. E. Schultz,  N. Shenvi,  A. C. Simmonett,  A. Sodt,  
 D. Stuck,  K. S. Thanthiriwatte,  V. Vanovschi,  Tao Wang,  A. Warshel,  
 C. F. Williams,  Q. Wu,  X. Xu,  W. Zhang

 Please cite Q-Chem as follows:
 Y. Shao et al., Mol. Phys. 113, 184-215 (2015)
 DOI: 10.1080/00268976.2014.952696

 Q-Chem 5.2.1 for Intel X86 EM64T Linux

 Parts of Q-Chem use Armadillo 8.300.2 (Tropical Shenanigans).
 http://arma.sourceforge.net/

 Q-Chem begins on Mon Feb  7 18:32:34 2022  

Host: 
0

     Scratch files written to /gpfs/fs0/scratch/a/aspuru/rhickman/descriptor_computation/qchem167962//
 Jul1719 |scratch|qcdevops|jenkins|workspace|build_RNUM -1
Processing $rem in /scinet/niagara/software/commercial/qc52/config/preferences:
	 MEM_TOTAL  4000 
NAlpha2: 86
NElect   86
Mult     1

Checking the input file for inconsistencies... 	...done.

--------------------------------------------------------------
User input:
--------------------------------------------------------------
$molecule
0 1
C        -1.77433300070000   -3.16181918210000    0.28458327720000
C        -0.97903010870000   -2.21813720780000   -0.20091944000000
C        -1.21252843240000   -0.78486135450000   -0.03702904340000
C        -2.51144703220000   -0.27290116800000   -0.06723647380000
N        -2.81180710650000    1.00515429590000    0.03895454090000
C        -1.81757834930000    1.86749323710000    0.17205794720000
C        -0.48620447110000    1.49108102220000    0.20794193340000
C        -0.16019981220000    0.13861539320000    0.10789348320000
C         1.21635688710000   -0.33435498020000    0.20771262820000
C         2.31038811840000    0.35738043850000   -0.07094371980000
F         2.38871460620000    1.59994952230000   -0.52604126750000
F         3.53836319910000   -0.13720492130000    0.05378834020000
H        -1.57241926250000   -4.20686332310000    0.12428179090000
H        -2.64395688880000   -2.92702650380000    0.87501535460000
H        -0.10107089490000   -2.49496808620000   -0.77029427610000
H        -3.35245629630000   -0.93983857150000   -0.20311214890000
H        -2.10513787250000    2.90654676980000    0.25734236830000
H         0.28041156910000    2.23733950200000    0.33545658780000
H         1.37241352760000   -1.34824618500000    0.54318518650000
$end

$rem
BASIS = 6-31G*
GUI = 2
METHOD = B3LYP
PRINT_ORBITALS false
MOLDEN_FORMAT false
--------------------------------------------------------------
 ----------------------------------------------------------------
             Standard Nuclear Orientation (Angstroms)
    I     Atom           X                Y                Z
 ----------------------------------------------------------------
    1      C      -2.5068749683    -2.5176424314     0.1427640716
    2      C      -1.4604968257    -1.8288150324    -0.2923966390
    3      C      -1.2900462241    -0.3897792365    -0.1032306499
    4      C      -2.3915527083     0.4662844473    -0.1668206247
    5      N      -2.3263503192     1.7758286201    -0.0412770764
    6      C      -1.1367352993     2.3229378610     0.1466680511
    7      C       0.0335991203     1.5877952055     0.2202400705
    8      C      -0.0280693547     0.1995631987     0.0999865802
    9      C       1.1560252144    -0.6417381045     0.2367540869
   10      C       2.4101621290    -0.2811347977     0.0127955211
   11      F       2.8512016109     0.8952646426    -0.4100463842
   12      F       3.4446864688    -1.1018247714     0.1687535968
   13      H      -2.5991463616    -3.5752489630    -0.0348236389
   14      H      -3.2990385885    -2.0558830497     0.7077759466
   15      H      -0.6729441024    -2.3335269155    -0.8370635496
   16      H      -3.3794148474     0.0637784693    -0.3476011917
   17      H      -1.1252837350     3.3997684837     0.2461709520
   18      H       0.9726294172     2.0874032634     0.3919250985
   19      H       1.0085912348    -1.6628771291     0.5536281971
 ----------------------------------------------------------------
 Molecular Point Group                 C1    NOp =  1
 Largest Abelian Subgroup              C1    NOp =  1
 Nuclear Repulsion Energy =         646.73821581 hartrees
 There are       43 alpha and       43 beta electrons
 Requested basis set is 6-31G(d)
 There are 62 shells and 194 basis functions

 Total QAlloc Memory Limit   4000 MB
 Mega-Array Size       188 MB
 MEM_STATIC part       192 MB
 A cutoff of  1.0D-08 yielded   1389 shell pairs
 There are     14390 function pairs
 Smallest overlap matrix eigenvalue = 5.91E-04

 Scale SEOQF with 1.000000e-01/1.000000e-01/1.000000e+00

 Standard Electronic Orientation quadrupole field applied
 Nucleus-field energy     =     0.0000000222 hartrees
 Guess from superposition of atomic densities
 Warning:  Energy on first SCF cycle will be non-variational
 SAD guess density has 86.000000 electrons

 -----------------------------------------------------------------------
  General SCF calculation program by
  Eric Jon Sundstrom, Paul Horn, Yuezhi Mao, Dmitri Zuev, Alec White,
  David Stuck, Shaama M.S., Shane Yost, Joonho Lee, David Small,
  Daniel Levine, Susi Lehtola, Hugh Burton, Evgeny Epifanovsky,
  Bang C. Huynh
 -----------------------------------------------------------------------
 Exchange:     0.2000 Hartree-Fock + 0.0800 Slater + 0.7200 B88
 Correlation:  0.1900 VWN1RPA + 0.8100 LYP
 Using SG-1 standard quadrature grid
 A restricted SCF calculation will be
 performed using DIIS
 SCF converges when DIIS error is below 1.0e-05
 ---------------------------------------
  Cycle       Energy         DIIS error
 ---------------------------------------
    1    -604.2774830238      5.76e-02  
    2    -601.3557332147      6.30e-03  
    3    -601.1769045368      8.87e-03  
    4    -601.5385242501      1.45e-03  
    5    -601.5476967663      4.78e-04  
    6    -601.5484779742      2.36e-04  
    7    -601.5487342711      6.01e-05  
    8    -601.5487499865      2.54e-05  
    9    -601.5487528074      6.51e-06  Convergence criterion met
 ---------------------------------------
 SCF time:   CPU 22.74s  wall 23.00s 
 SCF   energy in the final basis set =     -601.5487528074
 Total energy in the final basis set =     -601.5487528074
 
 --------------------------------------------------------------
 
                    Orbital Energies (a.u.)
 --------------------------------------------------------------
 
 Alpha MOs
 -- Occupied --
-24.7552 -24.7466 -14.3242 -10.3716 -10.2243 -10.2192 -10.2189 -10.2135
-10.2067 -10.2014 -10.1970 -10.1918  -1.2979  -1.2367  -0.9489  -0.8516
 -0.8085  -0.7724  -0.7424  -0.6645  -0.6503  -0.6212  -0.5871  -0.5758
 -0.5438  -0.5317  -0.5126  -0.4835  -0.4750  -0.4547  -0.4492  -0.4448
 -0.4369  -0.4284  -0.4087  -0.4009  -0.3809  -0.3615  -0.3254  -0.3045
 -0.2542  -0.2503  -0.2364
 -- Virtual --
 -0.0505  -0.0276   0.0358   0.0454   0.0990   0.1194   0.1241   0.1334
  0.1431   0.1678   0.1736   0.1788   0.1930   0.2032   0.2502   0.2862
  0.3037   0.3256   0.3513   0.3733   0.3921   0.4048   0.4563   0.4607
  0.4868   0.4998   0.5189   0.5290   0.5436   0.5555   0.5589   0.5792
  0.5878   0.5944   0.6033   0.6138   0.6263   0.6557   0.6622   0.6683
  0.6830   0.6932   0.7095   0.7505   0.7777   0.8224   0.8297   0.8451
  0.8507   0.8574   0.8690   0.8774   0.8900   0.9235   0.9476   0.9591
  0.9712   0.9966   1.0156   1.0307   1.0639   1.0946   1.1193   1.1517
  1.1688   1.1817   1.1876   1.2143   1.2194   1.2350   1.2541   1.3008
  1.3104   1.3496   1.3866   1.4184   1.4301   1.4328   1.4607   1.4846
  1.4921   1.5090   1.5187   1.5497   1.6289   1.6340   1.6718   1.6986
  1.7118   1.7453   1.7837   1.8004   1.8117   1.8274   1.8446   1.8558
  1.8669   1.8896   1.9608   1.9762   1.9833   2.0016   2.0105   2.0278
  2.0455   2.0647   2.0867   2.1319   2.1771   2.1985   2.2177   2.2313
  2.2656   2.2669   2.3117   2.3328   2.3508   2.3782   2.4204   2.4672
  2.5134   2.5185   2.5601   2.5925   2.6289   2.6487   2.6741   2.7175
  2.7402   2.7709   2.8051   2.8887   2.9161   2.9670   3.0181   3.0989
  3.1490   3.2895   3.4494   4.0561   4.0805   4.0974   4.1271   4.1619
  4.2100   4.2787   4.3631   4.4043   4.6888   4.7736   5.2525
 --------------------------------------------------------------
 
          Ground-State Mulliken Net Atomic Charges

     Atom                 Charge (a.u.)
  ----------------------------------------
      1 C                    -0.333304
      2 C                    -0.139157
      3 C                     0.073811
      4 C                    -0.011338
      5 N                    -0.404698
      6 C                     0.038734
      7 C                    -0.201992
      8 C                     0.148730
      9 C                    -0.310244
     10 C                     0.563282
     11 F                    -0.229323
     12 F                    -0.241337
     13 H                     0.149011
     14 H                     0.153544
     15 H                     0.143593
     16 H                     0.141721
     17 H                     0.141561
     18 H                     0.141638
     19 H                     0.175768
  ----------------------------------------
  Sum of atomic charges =     0.000000

 -----------------------------------------------------------------
                    Cartesian Multipole Moments
 -----------------------------------------------------------------
    Charge (ESU x 10^10)
                 0.0000
    Dipole Moment (Debye)
         X       0.9654      Y      -1.6339      Z       0.2716
       Tot       1.9171
    Quadrupole Moments (Debye-Ang)
        XX     -71.5127     XY       6.6761     YY     -63.5106
        XZ      -0.3681     YZ       1.1052     ZZ     -68.1722
    Octopole Moments (Debye-Ang^2)
       XXX      42.3364    XXY     -19.3848    XYY      20.7217
       YYY      -4.4215    XXZ       3.1855    XYZ       1.6111
       YYZ       0.6227    XZZ      19.4837    YZZ      -0.0165
       ZZZ      -2.8806
    Hexadecapole Moments (Debye-Ang^3)
      XXXX   -1740.4424   XXXY      67.4610   XXYY    -470.9225
      XYYY      26.3309   YYYY    -887.2362   XXXZ     -15.0490
      XXYZ      -4.3055   XYYZ      -3.9685   YYYZ       7.5888
      XXZZ    -298.5560   XYZZ      -6.9482   YYZZ    -182.5243
      XZZZ      -7.1840   YZZZ      -5.2225   ZZZZ     -87.1664
 -----------------------------------------------------------------
Archival summary:
1\1\nia1977.scinet.local\SP\ProcedureUnspecified\6-31G*\2197\rhickman\MonFeb718:32:572022MonFeb718:32:572022\0\\#,ProcedureUnspecified,6-31G*,\\0,1\F\C,1,1.3256\C,2,1.32403,1,127.647\H,3,1.07929,2,115.896,1,178.305,0\F,2,1.3297,1,109.044,3,178.883,0\C,3,1.45896,2,126.573,1,-1.81583,0\C,6,1.39479,3,122.003,2,-25.6072,0\H,7,1.07743,6,120.917,3,1.76368,0\C,7,1.38403,6,119.123,3,-176.775,0\H,9,1.08148,7,121,6,179.365,0\N,9,1.32281,7,123.252,6,-0.38977,0\C,11,1.31716,9,117.986,7,-0.164526,0\H,12,1.08193,11,115.531,9,-178.294,0\C,12,1.3965,11,124.477,9,0.605211,0\C,14,1.46139,12,120.38,11,-178.265,0\H,15,1.08242,14,116.067,12,142.474,0\C,15,1.32618,14,124.126,12,-36.6792,0\H,17,1.07637,15,121.591,14,178.887,0\H,17,1.07703,15,121.991,14,-2.3272,0\\\@

 Total job time:  22.96s(wall), 22.88s(cpu) 
 Mon Feb  7 18:32:57 2022

        *************************************************************
        *                                                           *
        *  Thank you very much for using Q-Chem.  Have a nice day.  *
        *                                                           *
        *************************************************************


