
Running Job 1 of 1 fragments/B007/conf-0/spe_input.inp
qchem fragments/B007/conf-0/spe_input.inp_310197.0 /gpfs/fs0/scratch/a/aspuru/rhickman/descriptor_computation/qchem310197/ 0
/scinet/niagara/software/commercial/qc52/exe/qcprog.exe_s fragments/B007/conf-0/spe_input.inp_310197.0 /gpfs/fs0/scratch/a/aspuru/rhickman/descriptor_computation/qchem310197/
                  Welcome to Q-Chem
     A Quantum Leap Into The Future Of Chemistry


 Q-Chem 5.2, Q-Chem, Inc., Pleasanton, CA (2019)

 License issued to: SRG Alan Aspuru-Guzik, University of Toronto

 Yihan Shao,  Zhengting Gan,  E. Epifanovsky,  A. T. B. Gilbert,  M. Wormit,  
 J. Kussmann,  A. W. Lange,  A. Behn,  Jia Deng,  Xintian Feng,  D. Ghosh,  
 M. Goldey,  P. R. Horn,  L. D. Jacobson,  I. Kaliman,  T. Kus,  A. Landau,  
 Jie Liu,  E. I. Proynov,  R. M. Richard,  R. P. Steele,  E. J. Sundstrom,  
 H. L. Woodcock III,  P. M. Zimmerman,  D. Zuev,  B. Albrecht,  E. Alguire,  
 S. A. Baeppler,  D. Barton,  Z. Benda,  Y. A. Bernard,  E. J. Berquist,  
 K. B. Bravaya,  H. Burton,  D. Casanova,  Chun-Min Chang,  Yunqing Chen,  
 A. Chien,  K. D. Closser,  M. P. Coons,  S. Coriani,  S. Dasgupta,  
 A. L. Dempwolff,  M. Diedenhofen,  Hainam Do,  R. G. Edgar,  Po-Tung Fang,  
 S. Faraji,  S. Fatehi,  Qingguo Feng,  K. D. Fenk,  J. Fosso-Tande,  
 J. Gayvert,  Qinghui Ge,  A. Ghysels,  G. Gidofalvi,  J. Gomes,  
 J. Gonthier,  A. Gunina,  D. Hait,  M. W. D. Hanson-Heine,  
 P. H. P. Harbach,  A. W. Hauser,  M. F. Herbst,  J. E. Herr,  
 E. G. Hohenstein,  Z. C. Holden,  Kerwin Hui,  B. C. Huynh,  T.-C. Jagau,  
 Hyunjun Ji,  B. Kaduk,  K. Khistyaev,  Jaehoon Kim,  P. Klunzinger,  K. Koh,  
 D. Kosenkov,  L. Koulias,  T. Kowalczyk,  C. M. Krauter,  A. Kunitsa,  
 Ka Un Lao,  A. Laurent,  K. V. Lawler,  Joonho Lee,  D. Lefrancois,  
 S. Lehtola,  D. S. Levine,  Yi-Pei Li,  You-Sheng Lin,  Fenglai Liu,  
 E. Livshits,  A. Luenser,  P. Manohar,  E. Mansoor,  S. F. Manzer,  
 Shan-Ping Mao,  Yuezhi Mao,  N. Mardirossian,  A. V. Marenich,  
 T. Markovich,  L. A. Martinez-Martinez,  S. A. Maurer,  N. J. Mayhall,  
 S. C. McKenzie,  J.-M. Mewes,  P. Morgante,  A. F. Morrison,  
 J. W. Mullinax,  K. Nanda,  T. S. Nguyen-Beck,  R. Olivares-Amaya,  
 J. A. Parkhill,  Zheng Pei,  T. M. Perrine,  F. Plasser,  P. Pokhilko,  
 S. Prager,  A. Prociuk,  E. Ramos,  D. R. Rehn,  F. Rob,  M. Scheurer,  
 M. Schneider,  N. Sergueev,  S. M. Sharada,  S. Sharma,  D. W. Small,  
 T. Stauch,  T. Stein,  Yu-Chuan Su,  A. J. W. Thom,  A. Tkatchenko,  
 T. Tsuchimochi,  N. M. Tubman,  L. Vogt,  M. L. Vidal,  O. Vydrov,  
 M. A. Watson,  J. Wenzel,  M. de Wergifosse,  T. A. Wesolowski,  A. White,  
 J. Witte,  A. Yamada,  Jun Yang,  K. Yao,  S. Yeganeh,  S. R. Yost,  
 Zhi-Qiang You,  A. Zech,  Igor Ying Zhang,  Xing Zhang,  Yan Zhao,  
 Ying Zhu,  B. R. Brooks,  G. K. L. Chan,  C. J. Cramer,  M. S. Gordon,  
 W. J. Hehre,  A. Klamt,  M. W. Schmidt,  C. D. Sherrill,  D. G. Truhlar,  
 A. Aspuru-Guzik,  R. Baer,  A. T. Bell,  N. A. Besley,  Jeng-Da Chai,  
 A. E. DePrince, III,  R. A. DiStasio Jr.,  A. Dreuw,  B. D. Dunietz,  
 T. R. Furlani,  Chao-Ping Hsu,  Yousung Jung,  Jing Kong,  D. S. Lambrecht,  
 WanZhen Liang,  C. Ochsenfeld,  V. A. Rassolov,  L. V. Slipchenko,  
 J. E. Subotnik,  T. Van Voorhis,  J. M. Herbert,  A. I. Krylov,  
 P. M. W. Gill,  M. Head-Gordon

 Contributors to earlier versions of Q-Chem not listed above: 
 R. D. Adamson,  B. Austin,  J. Baker,  G. J. O. Beran,  K. Brandhorst,  
 S. T. Brown,  E. F. C. Byrd,  A. K. Chakraborty,  C.-L. Cheng,  
 Siu Hung Chien,  D. M. Chipman,  D. L. Crittenden,  H. Dachsel,  
 R. J. Doerksen,  A. D. Dutoi,  L. Fusti-Molnar,  W. A. Goddard III,  
 A. Golubeva-Zadorozhnaya,  S. R. Gwaltney,  G. Hawkins,  A. Heyden,  
 S. Hirata,  G. Kedziora,  F. J. Keil,  C. Kelley,  Jihan Kim,  R. A. King,  
 R. Z. Khaliullin,  P. P. Korambath,  W. Kurlancheek,  A. M. Lee,  M. S. Lee,  
 S. V. Levchenko,  Ching Yeh Lin,  D. Liotard,  R. C. Lochan,  I. Lotan,  
 P. E. Maslen,  N. Nair,  D. P. O'Neill,  D. Neuhauser,  E. Neuscamman,  
 C. M. Oana,  R. Olson,  B. Peters,  R. Peverati,  P. A. Pieniazek,  
 Y. M. Rhee,  J. Ritchie,  M. A. Rohrdanz,  E. Rosta,  N. J. Russ,  
 H. F. Schaefer III,  N. E. Schultz,  N. Shenvi,  A. C. Simmonett,  A. Sodt,  
 D. Stuck,  K. S. Thanthiriwatte,  V. Vanovschi,  Tao Wang,  A. Warshel,  
 C. F. Williams,  Q. Wu,  X. Xu,  W. Zhang

 Please cite Q-Chem as follows:
 Y. Shao et al., Mol. Phys. 113, 184-215 (2015)
 DOI: 10.1080/00268976.2014.952696

 Q-Chem 5.2.1 for Intel X86 EM64T Linux

 Parts of Q-Chem use Armadillo 8.300.2 (Tropical Shenanigans).
 http://arma.sourceforge.net/

 Q-Chem begins on Tue Feb  8 13:53:51 2022  

Host: 
0

     Scratch files written to /gpfs/fs0/scratch/a/aspuru/rhickman/descriptor_computation/qchem310197//
 Jul1719 |scratch|qcdevops|jenkins|workspace|build_RNUM -1
Processing $rem in /scinet/niagara/software/commercial/qc52/config/preferences:
	 MEM_TOTAL  4000 
NAlpha2: 88
NElect   88
Mult     1

Checking the input file for inconsistencies... 	...done.

--------------------------------------------------------------
User input:
--------------------------------------------------------------
$molecule
0 1
C        -1.47342746140000   -2.85095287010000   -0.28296986990000
C        -2.21049367550000   -1.78528131090000    0.00781930040000
C        -1.74873982560000   -0.41688280150000    0.03531372210000
C        -2.54653175000000    0.73133988610000   -0.11751007300000
N        -1.81830245130000    1.82704632030000   -0.06688462720000
N        -0.56065255160000    1.44383967620000    0.10684973610000
C         0.45441351020000    2.44259033870000    0.27793488400000
C        -0.45118724980000    0.09178657820000    0.17850366630000
C         0.75748299820000   -0.64512485840000    0.45900360820000
C         1.98240281800000   -0.39750072420000    0.02056787400000
F         2.36370158900000    0.56957164510000   -0.80889094240000
F         3.04276159140000   -1.13158978000000    0.35167187910000
H        -1.89734758740000   -3.84030488230000   -0.28438529820000
H        -0.43444041350000   -2.77686545640000   -0.55497644140000
H        -3.26557712940000   -1.90370336890000    0.22138709690000
H        -3.60644025090000    0.78762253500000   -0.26448983270000
H        -0.04740746520000    3.37561741430000    0.52707624900000
H         1.02874952930000    2.58318962980000   -0.63947196700000
H         1.13239996410000    2.16176307130000    1.08433312790000
H         0.63875218340000   -1.52377506510000    1.07763562740000
$end

$rem
BASIS = 6-31G*
GUI = 2
METHOD = B3LYP
PRINT_ORBITALS false
MOLDEN_FORMAT false
--------------------------------------------------------------
 ----------------------------------------------------------------
             Standard Nuclear Orientation (Angstroms)
    I     Atom           X                Y                Z
 ----------------------------------------------------------------
    1      C      -1.6476141228    -2.7188391775    -0.2600269255
    2      C      -2.2888593819    -1.5914280699     0.0249810213
    3      C      -1.7112426741    -0.2675424097     0.0381240523
    4      C      -2.4084211214     0.9436140941    -0.1208870892
    5      N      -1.5885836295     1.9731401160    -0.0835227428
    6      N      -0.3674887694     1.4848434367     0.0873805245
    7      C       0.7304866797     2.3941573489     0.2446390559
    8      C      -0.3740374639     0.1290314247     0.1704191949
    9      C       0.7685145248    -0.7065534491     0.4514446789
   10      C       2.0076581193    -0.5686823617     0.0048051314
   11      F       2.4658214061     0.3551105603    -0.8350238323
   12      F       3.0029771932    -1.3882991461     0.3371386990
   13      H      -2.1548647215    -3.6681210517    -0.2506229867
   14      H      -0.6076612528    -2.7365028555    -0.5377977453
   15      H      -3.3489846513    -1.6170408065     0.2447865788
   16      H      -3.4604075329     1.0894526292    -0.2631281812
   17      H       0.3119972895     3.3688736283     0.4880112810
   18      H       1.3095566506     2.4772491862    -0.6767941045
   19      H       1.3864381613     2.0629169387     1.0501296877
   20      H       0.5783380978    -1.5665596640     1.0783824782
 ----------------------------------------------------------------
 Molecular Point Group                 C1    NOp =  1
 Largest Abelian Subgroup              C1    NOp =  1
 Nuclear Repulsion Energy =         692.33183368 hartrees
 There are       44 alpha and       44 beta electrons
 Requested basis set is 6-31G(d)
 There are 64 shells and 196 basis functions

 Total QAlloc Memory Limit   4000 MB
 Mega-Array Size       188 MB
 MEM_STATIC part       192 MB
 A cutoff of  1.0D-08 yielded   1515 shell pairs
 There are     15282 function pairs
 Smallest overlap matrix eigenvalue = 7.36E-04

 Scale SEOQF with 1.000000e-01/1.000000e-01/1.000000e+00

 Standard Electronic Orientation quadrupole field applied
 Nucleus-field energy     =     0.0000000127 hartrees
 Guess from superposition of atomic densities
 Warning:  Energy on first SCF cycle will be non-variational
 SAD guess density has 88.000000 electrons

 -----------------------------------------------------------------------
  General SCF calculation program by
  Eric Jon Sundstrom, Paul Horn, Yuezhi Mao, Dmitri Zuev, Alec White,
  David Stuck, Shaama M.S., Shane Yost, Joonho Lee, David Small,
  Daniel Levine, Susi Lehtola, Hugh Burton, Evgeny Epifanovsky,
  Bang C. Huynh
 -----------------------------------------------------------------------
 Exchange:     0.2000 Hartree-Fock + 0.0800 Slater + 0.7200 B88
 Correlation:  0.1900 VWN1RPA + 0.8100 LYP
 Using SG-1 standard quadrature grid
 A restricted SCF calculation will be
 performed using DIIS
 SCF converges when DIIS error is below 1.0e-05
 ---------------------------------------
  Cycle       Energy         DIIS error
 ---------------------------------------
    1    -621.5874459343      5.83e-02  
    2    -618.5780283917      6.41e-03  
    3    -618.3530067268      9.37e-03  
    4    -618.7653559176      1.68e-03  
    5    -618.7774394530      5.62e-04  
    6    -618.7784072270      3.23e-04  
    7    -618.7788751060      5.86e-05  
    8    -618.7788885645      2.40e-05  
    9    -618.7788908476      6.67e-06  Convergence criterion met
 ---------------------------------------
 SCF time:   CPU 24.79s  wall 24.00s 
 SCF   energy in the final basis set =     -618.7788908476
 Total energy in the final basis set =     -618.7788908476
 
 --------------------------------------------------------------
 
                    Orbital Energies (a.u.)
 --------------------------------------------------------------
 
 Alpha MOs
 -- Occupied --
-24.7521 -24.7435 -14.4162 -14.3427 -10.3675 -10.2332 -10.2279 -10.2161
-10.1982 -10.1932 -10.1857 -10.1771  -1.2935  -1.2333  -1.0620  -0.8535
 -0.8361  -0.7876  -0.7510  -0.7038  -0.6559  -0.6207  -0.5919  -0.5861
 -0.5606  -0.5378  -0.5261  -0.4941  -0.4796  -0.4631  -0.4509  -0.4501
 -0.4402  -0.4382  -0.4255  -0.4081  -0.3962  -0.3938  -0.3605  -0.3088
 -0.3001  -0.2801  -0.2396  -0.2122
 -- Virtual --
 -0.0257   0.0147   0.0499   0.0902   0.1039   0.1146   0.1326   0.1451
  0.1460   0.1572   0.1587   0.1679   0.1782   0.1926   0.2098   0.2591
  0.2703   0.3100   0.3245   0.3576   0.3657   0.4155   0.4431   0.4513
  0.4750   0.4907   0.5129   0.5204   0.5319   0.5400   0.5445   0.5706
  0.5796   0.5882   0.6178   0.6261   0.6346   0.6616   0.6681   0.6911
  0.6985   0.7258   0.7338   0.7595   0.7782   0.8111   0.8213   0.8325
  0.8518   0.8626   0.8658   0.8682   0.9017   0.9118   0.9368   0.9435
  0.9501   0.9692   0.9981   1.0058   1.0286   1.0686   1.0901   1.1154
  1.1304   1.1670   1.1953   1.2015   1.2301   1.2802   1.2810   1.2996
  1.3132   1.3483   1.3585   1.3941   1.4074   1.4163   1.4334   1.4503
  1.4820   1.5070   1.5176   1.5481   1.5788   1.6223   1.6728   1.6948
  1.7104   1.7674   1.7930   1.7996   1.8289   1.8546   1.8668   1.8906
  1.9008   1.9309   1.9598   1.9696   1.9863   1.9893   1.9998   2.0210
  2.0370   2.0544   2.1114   2.1332   2.1524   2.1611   2.1928   2.2160
  2.2284   2.2463   2.2936   2.3220   2.3448   2.3505   2.3866   2.4024
  2.4511   2.4967   2.5249   2.5332   2.5637   2.6167   2.6343   2.6840
  2.7080   2.7230   2.7806   2.8003   2.8780   2.9698   3.0041   3.0848
  3.1013   3.1298   3.2750   3.3361   3.8555   4.0655   4.0911   4.1032
  4.1621   4.2091   4.2634   4.3403   4.4592   4.7069   4.7922   5.2517
 --------------------------------------------------------------
 
          Ground-State Mulliken Net Atomic Charges

     Atom                 Charge (a.u.)
  ----------------------------------------
      1 C                    -0.365463
      2 C                    -0.107661
      3 C                    -0.022799
      4 C                     0.012100
      5 N                    -0.291731
      6 N                    -0.307781
      7 C                    -0.325209
      8 C                     0.349662
      9 C                    -0.311897
     10 C                     0.559285
     11 F                    -0.235526
     12 F                    -0.244163
     13 H                     0.141219
     14 H                     0.144796
     15 H                     0.131472
     16 H                     0.142771
     17 H                     0.193678
     18 H                     0.181615
     19 H                     0.168422
     20 H                     0.187211
  ----------------------------------------
  Sum of atomic charges =     0.000000

 -----------------------------------------------------------------
                    Cartesian Multipole Moments
 -----------------------------------------------------------------
    Charge (ESU x 10^10)
                 0.0000
    Dipole Moment (Debye)
         X       0.8551      Y      -0.4784      Z       0.7255
       Tot       1.2192
    Quadrupole Moments (Debye-Ang)
        XX     -66.6657     XY       5.8860     YY     -66.7869
        XZ       0.2296     YZ       0.6742     ZZ     -68.9489
    Octopole Moments (Debye-Ang^2)
       XXX      13.7430    XXY      -2.4693    XYY      25.9767
       YYY      -8.6855    XXZ      -0.2957    XYZ       1.8656
       YYZ       1.1711    XZZ      19.6229    YZZ       1.4684
       ZZZ      -3.2624
    Hexadecapole Moments (Debye-Ang^3)
      XXXX   -1328.9184   XXXY      -7.8063   XXYY    -418.8644
      XYYY      28.3652   YYYY   -1035.0377   XXXZ      -7.3179
      XXYZ      -3.1568   XYYZ      -4.7942   YYYZ       5.4612
      XXZZ    -259.8089   XYZZ     -13.5055   YYZZ    -201.4038
      XZZZ     -10.4152   YZZZ      -8.5944   ZZZZ    -113.5606
 -----------------------------------------------------------------
Archival summary:
1\1\nia2015.scinet.local\SP\ProcedureUnspecified\6-31G*\2288\rhickman\TueFeb813:54:162022TueFeb813:54:162022\0\\#,ProcedureUnspecified,6-31G*,\\0,1\N\N,1,1.32617\C,2,1.31661,1,106.804\H,3,1.07153,2,120.575,1,-179.343,0\C,1,1.35837,2,111.774,3,-0.293444,0\C,5,1.40103,1,106.341,2,0.11403,0\C,1,1.43427,2,119.05,3,-176.352,0\H,7,1.08832,1,107.335,2,16.6035,0\H,7,1.09032,1,110.423,2,136.228,0\H,7,1.09145,1,111.214,2,-102.471,0\C,5,1.44312,1,125.874,2,-175.247,0\H,11,1.08112,5,115.737,1,142.079,0\C,11,1.32438,5,127.939,1,-40.0314,0\F,13,1.32989,11,127.418,5,-1.9981,0\F,13,1.33149,11,123.446,5,179.122,0\C,6,1.44447,5,129.938,1,178.603,0\H,16,1.08298,6,114.285,5,160.257,0\C,16,1.32796,6,125.942,5,-21.6161,0\H,18,1.07635,16,121.286,6,-179.78,0\H,18,1.07655,16,122.396,6,-1.48796,0\\\@

 Total job time:  25.03s(wall), 24.94s(cpu) 
 Tue Feb  8 13:54:16 2022

        *************************************************************
        *                                                           *
        *  Thank you very much for using Q-Chem.  Have a nice day.  *
        *                                                           *
        *************************************************************


