
Running Job 1 of 1 fragments/A019/conf-2/spe_input.inp
qchem fragments/A019/conf-2/spe_input.inp_170134.0 /gpfs/fs0/scratch/a/aspuru/rhickman/descriptor_computation/qchem170134/ 0
/scinet/niagara/software/commercial/qc52/exe/qcprog.exe_s fragments/A019/conf-2/spe_input.inp_170134.0 /gpfs/fs0/scratch/a/aspuru/rhickman/descriptor_computation/qchem170134/
                  Welcome to Q-Chem
     A Quantum Leap Into The Future Of Chemistry


 Q-Chem 5.2, Q-Chem, Inc., Pleasanton, CA (2019)

 License issued to: SRG Alan Aspuru-Guzik, University of Toronto

 Yihan Shao,  Zhengting Gan,  E. Epifanovsky,  A. T. B. Gilbert,  M. Wormit,  
 J. Kussmann,  A. W. Lange,  A. Behn,  Jia Deng,  Xintian Feng,  D. Ghosh,  
 M. Goldey,  P. R. Horn,  L. D. Jacobson,  I. Kaliman,  T. Kus,  A. Landau,  
 Jie Liu,  E. I. Proynov,  R. M. Richard,  R. P. Steele,  E. J. Sundstrom,  
 H. L. Woodcock III,  P. M. Zimmerman,  D. Zuev,  B. Albrecht,  E. Alguire,  
 S. A. Baeppler,  D. Barton,  Z. Benda,  Y. A. Bernard,  E. J. Berquist,  
 K. B. Bravaya,  H. Burton,  D. Casanova,  Chun-Min Chang,  Yunqing Chen,  
 A. Chien,  K. D. Closser,  M. P. Coons,  S. Coriani,  S. Dasgupta,  
 A. L. Dempwolff,  M. Diedenhofen,  Hainam Do,  R. G. Edgar,  Po-Tung Fang,  
 S. Faraji,  S. Fatehi,  Qingguo Feng,  K. D. Fenk,  J. Fosso-Tande,  
 J. Gayvert,  Qinghui Ge,  A. Ghysels,  G. Gidofalvi,  J. Gomes,  
 J. Gonthier,  A. Gunina,  D. Hait,  M. W. D. Hanson-Heine,  
 P. H. P. Harbach,  A. W. Hauser,  M. F. Herbst,  J. E. Herr,  
 E. G. Hohenstein,  Z. C. Holden,  Kerwin Hui,  B. C. Huynh,  T.-C. Jagau,  
 Hyunjun Ji,  B. Kaduk,  K. Khistyaev,  Jaehoon Kim,  P. Klunzinger,  K. Koh,  
 D. Kosenkov,  L. Koulias,  T. Kowalczyk,  C. M. Krauter,  A. Kunitsa,  
 Ka Un Lao,  A. Laurent,  K. V. Lawler,  Joonho Lee,  D. Lefrancois,  
 S. Lehtola,  D. S. Levine,  Yi-Pei Li,  You-Sheng Lin,  Fenglai Liu,  
 E. Livshits,  A. Luenser,  P. Manohar,  E. Mansoor,  S. F. Manzer,  
 Shan-Ping Mao,  Yuezhi Mao,  N. Mardirossian,  A. V. Marenich,  
 T. Markovich,  L. A. Martinez-Martinez,  S. A. Maurer,  N. J. Mayhall,  
 S. C. McKenzie,  J.-M. Mewes,  P. Morgante,  A. F. Morrison,  
 J. W. Mullinax,  K. Nanda,  T. S. Nguyen-Beck,  R. Olivares-Amaya,  
 J. A. Parkhill,  Zheng Pei,  T. M. Perrine,  F. Plasser,  P. Pokhilko,  
 S. Prager,  A. Prociuk,  E. Ramos,  D. R. Rehn,  F. Rob,  M. Scheurer,  
 M. Schneider,  N. Sergueev,  S. M. Sharada,  S. Sharma,  D. W. Small,  
 T. Stauch,  T. Stein,  Yu-Chuan Su,  A. J. W. Thom,  A. Tkatchenko,  
 T. Tsuchimochi,  N. M. Tubman,  L. Vogt,  M. L. Vidal,  O. Vydrov,  
 M. A. Watson,  J. Wenzel,  M. de Wergifosse,  T. A. Wesolowski,  A. White,  
 J. Witte,  A. Yamada,  Jun Yang,  K. Yao,  S. Yeganeh,  S. R. Yost,  
 Zhi-Qiang You,  A. Zech,  Igor Ying Zhang,  Xing Zhang,  Yan Zhao,  
 Ying Zhu,  B. R. Brooks,  G. K. L. Chan,  C. J. Cramer,  M. S. Gordon,  
 W. J. Hehre,  A. Klamt,  M. W. Schmidt,  C. D. Sherrill,  D. G. Truhlar,  
 A. Aspuru-Guzik,  R. Baer,  A. T. Bell,  N. A. Besley,  Jeng-Da Chai,  
 A. E. DePrince, III,  R. A. DiStasio Jr.,  A. Dreuw,  B. D. Dunietz,  
 T. R. Furlani,  Chao-Ping Hsu,  Yousung Jung,  Jing Kong,  D. S. Lambrecht,  
 WanZhen Liang,  C. Ochsenfeld,  V. A. Rassolov,  L. V. Slipchenko,  
 J. E. Subotnik,  T. Van Voorhis,  J. M. Herbert,  A. I. Krylov,  
 P. M. W. Gill,  M. Head-Gordon

 Contributors to earlier versions of Q-Chem not listed above: 
 R. D. Adamson,  B. Austin,  J. Baker,  G. J. O. Beran,  K. Brandhorst,  
 S. T. Brown,  E. F. C. Byrd,  A. K. Chakraborty,  C.-L. Cheng,  
 Siu Hung Chien,  D. M. Chipman,  D. L. Crittenden,  H. Dachsel,  
 R. J. Doerksen,  A. D. Dutoi,  L. Fusti-Molnar,  W. A. Goddard III,  
 A. Golubeva-Zadorozhnaya,  S. R. Gwaltney,  G. Hawkins,  A. Heyden,  
 S. Hirata,  G. Kedziora,  F. J. Keil,  C. Kelley,  Jihan Kim,  R. A. King,  
 R. Z. Khaliullin,  P. P. Korambath,  W. Kurlancheek,  A. M. Lee,  M. S. Lee,  
 S. V. Levchenko,  Ching Yeh Lin,  D. Liotard,  R. C. Lochan,  I. Lotan,  
 P. E. Maslen,  N. Nair,  D. P. O'Neill,  D. Neuhauser,  E. Neuscamman,  
 C. M. Oana,  R. Olson,  B. Peters,  R. Peverati,  P. A. Pieniazek,  
 Y. M. Rhee,  J. Ritchie,  M. A. Rohrdanz,  E. Rosta,  N. J. Russ,  
 H. F. Schaefer III,  N. E. Schultz,  N. Shenvi,  A. C. Simmonett,  A. Sodt,  
 D. Stuck,  K. S. Thanthiriwatte,  V. Vanovschi,  Tao Wang,  A. Warshel,  
 C. F. Williams,  Q. Wu,  X. Xu,  W. Zhang

 Please cite Q-Chem as follows:
 Y. Shao et al., Mol. Phys. 113, 184-215 (2015)
 DOI: 10.1080/00268976.2014.952696

 Q-Chem 5.2.1 for Intel X86 EM64T Linux

 Parts of Q-Chem use Armadillo 8.300.2 (Tropical Shenanigans).
 http://arma.sourceforge.net/

 Q-Chem begins on Mon Feb  7 18:39:32 2022  

Host: 
0

     Scratch files written to /gpfs/fs0/scratch/a/aspuru/rhickman/descriptor_computation/qchem170134//
 Jul1719 |scratch|qcdevops|jenkins|workspace|build_RNUM -1
Processing $rem in /scinet/niagara/software/commercial/qc52/config/preferences:
	 MEM_TOTAL  4000 
NAlpha2: 190
NElect   190
Mult     1

Checking the input file for inconsistencies... 	...done.

--------------------------------------------------------------
User input:
--------------------------------------------------------------
$molecule
0 1
C        -3.94136285370000   -5.39586284730000    0.51512760980000
O        -4.21373366930000   -4.02742775420000    0.35129755450000
C        -3.16673124090000   -3.14871327820000    0.30650425110000
C        -3.51341162230000   -1.81266783370000    0.13241459040000
C        -2.51066050240000   -0.86060738090000    0.08582204800000
C        -2.51934018060000    0.56405137660000   -0.10537493730000
C        -3.53599979400000    1.48785043290000   -0.27042216390000
C        -3.20860120210000    2.83320263720000   -0.40577643200000
O        -4.26709175780000    3.68256648390000   -0.57385250270000
C        -4.01496064360000    5.05779534240000   -0.71203979580000
C        -1.87262109420000    3.23946289460000   -0.35341083440000
C        -0.84783192610000    2.32356189210000   -0.18781850760000
C        -1.16865943500000    0.98120641600000   -0.08468866630000
N        -0.34964460770000   -0.11808583150000    0.11721315110000
C         1.04105688430000   -0.09735022900000    0.20300924160000
C         1.69799292890000   -0.77919438970000    1.22734315970000
C         3.07311641720000   -0.75472904670000    1.30558039900000
C         3.83998685150000   -0.04701445010000    0.37533110250000
C         5.28408522940000   -0.06090956100000    0.52513369120000
C         6.19775209230000    0.55255455180000   -0.21360167390000
F         6.00810579850000    1.33062147000000   -1.27355126050000
F         7.50573985160000    0.46450492330000    0.02658035460000
C         3.17420912300000    0.63405275150000   -0.64706272620000
C         1.79870524170000    0.60614362520000   -0.73338926410000
C        -1.15559986650000   -1.23993829940000    0.22348310610000
C        -0.81187262020000   -2.57313195500000    0.36465135280000
C        -1.82302462050000   -3.51765640910000    0.41056325500000
H        -4.91216153840000   -5.88930128510000    0.52615507390000
H        -3.42567363680000   -5.59564323890000    1.46058958320000
H        -3.34602894400000   -5.79237517680000   -0.31436083810000
H        -4.55229100510000   -1.54536035110000    0.03107387320000
H        -4.57175304120000    1.19152419050000   -0.29053733320000
H        -4.99099312040000    5.52403315630000   -0.83864689350000
H        -3.39820189700000    5.26981107990000   -1.59197617700000
H        -3.53146785660000    5.47234986790000    0.17906161530000
H        -1.61602614000000    4.28350452820000   -0.43621688330000
H         0.17397766020000    2.66561535120000   -0.12785405250000
H         1.12012159410000   -1.30729499820000    1.97032571860000
H         3.56809943600000   -1.28211660470000    2.10798981410000
H         5.67748986340000   -0.64294549000000    1.34628184840000
H         3.73148584730000    1.18107172770000   -1.38951608060000
H         1.29908780190000    1.11400834690000   -1.54408750290000
H         0.21922023500000   -2.88649301610000    0.42366517450000
H        -1.54892754710000   -4.55446596840000    0.52328216440000
$end

$rem
BASIS = 6-31G*
GUI = 2
METHOD = B3LYP
PRINT_ORBITALS false
MOLDEN_FORMAT false
--------------------------------------------------------------
 ----------------------------------------------------------------
             Standard Nuclear Orientation (Angstroms)
    I     Atom           X                Y                Z
 ----------------------------------------------------------------
    1      C      -4.4426172069    -4.9266475023    -0.2908964332
    2      O      -4.5568562067    -3.5273151277    -0.2413070339
    3      C      -3.4167717393    -2.7763634639    -0.1598290533
    4      C      -3.6084103938    -1.3988461877    -0.1247191341
    5      C      -2.5039743297    -0.5706017683    -0.0334396659
    6      C      -2.3496121887     0.8582499337    -0.0044682601
    7      C      -3.2536326010     1.9055357530    -0.0179426735
    8      C      -2.7748557403     3.2099354816     0.0513194014
    9      O      -3.7288320243     4.1893452506     0.0238144941
   10      C      -3.3214287917     5.5320325009     0.0954649942
   11      C      -1.4020242746     3.4494849908     0.1541892265
   12      C      -0.4890381344     2.4089490840     0.1693430602
   13      C      -0.9606497485     1.1116727810     0.0686407366
   14      N      -0.2731958600    -0.0911533796     0.0933278833
   15      C       1.1100668786    -0.2413953620     0.1698335488
   16      C       1.6761365863    -1.1417517082     1.0724186903
   17      C       3.0444139232    -1.2854126036     1.1421532094
   18      C       3.8950024140    -0.5352729338     0.3247771258
   19      C       5.3268068024    -0.7353434595     0.4587994850
   20      C       6.3108083867    -0.1236297655    -0.1849415596
   21      F       6.2202244690     0.8237196527    -1.1118561219
   22      F       7.5981562047    -0.3949019684     0.0281760367
   23      C       3.3200423609     0.3650253404    -0.5759368202
   24      C       1.9510720679     0.5065848706    -0.6541886846
   25      C      -1.2018740490    -1.1174965559     0.0334392536
   26      C      -1.0125427431    -2.4868476285    -0.0337434339
   27      C      -2.1244662729    -3.3066382947    -0.1244740374
   28      H      -5.4630794980    -5.3028266328    -0.3474575257
   29      H      -3.9616003518    -5.3256920386     0.6086213040
   30      H      -3.8883452564    -5.2565476808    -1.1761331551
   31      H      -4.6093864312    -1.0032856575    -0.1754383892
   32      H      -4.3160358347     1.7349852285    -0.0746042894
   33      H      -4.2372192527     6.1196359701     0.0496780241
   34      H      -2.6765411778     5.8048333620    -0.7467521482
   35      H      -2.8023775394     5.7480600143     1.0354651885
   36      H      -1.0281759425     4.4580620026     0.2298898253
   37      H       0.5643183536     2.6198798301     0.2724908430
   38      H       1.0353799505    -1.7083357859     1.7306451192
   39      H       3.4691059141    -1.9818715925     1.8503821867
   40      H       5.6442200192    -1.4768142887     1.1780262810
   41      H       3.9424735586     0.9524336041    -1.2305779640
   42      H       1.5196428715     1.1856692782    -1.3735557758
   43      H      -0.0241236843    -2.9202693214    -0.0318297404
   44      H      -1.9705121295    -4.3727837897    -0.1738777382
 ----------------------------------------------------------------
 Molecular Point Group                 C1    NOp =  1
 Largest Abelian Subgroup              C1    NOp =  1
 Nuclear Repulsion Energy =        2260.09972229 hartrees
 There are       95 alpha and       95 beta electrons
 Requested basis set is 6-31G(d)
 There are 142 shells and 439 basis functions

 Total QAlloc Memory Limit   4000 MB
 Mega-Array Size       188 MB
 MEM_STATIC part       192 MB
 A cutoff of  1.0D-08 yielded   4186 shell pairs
 There are     43673 function pairs
 Smallest overlap matrix eigenvalue = 2.53E-04

 Scale SEOQF with 1.000000e-02/1.000000e-02/1.000000e-01

 Standard Electronic Orientation quadrupole field applied
 Nucleus-field energy     =     0.0000000128 hartrees
 Guess from superposition of atomic densities
 Warning:  Energy on first SCF cycle will be non-variational
 SAD guess density has 190.000000 electrons

 -----------------------------------------------------------------------
  General SCF calculation program by
  Eric Jon Sundstrom, Paul Horn, Yuezhi Mao, Dmitri Zuev, Alec White,
  David Stuck, Shaama M.S., Shane Yost, Joonho Lee, David Small,
  Daniel Levine, Susi Lehtola, Hugh Burton, Evgeny Epifanovsky,
  Bang C. Huynh
 -----------------------------------------------------------------------
 Exchange:     0.2000 Hartree-Fock + 0.0800 Slater + 0.7200 B88
 Correlation:  0.1900 VWN1RPA + 0.8100 LYP
 Using SG-1 standard quadrature grid
 A restricted SCF calculation will be
 performed using DIIS
 SCF converges when DIIS error is below 1.0e-05
 ---------------------------------------
  Cycle       Energy         DIIS error
 ---------------------------------------
    1   -1260.4067584035      3.96e-02  
    2   -1253.0746454133      3.78e-03  
    3   -1252.8993808549      4.70e-03  
    4   -1253.3945681506      1.12e-03  
    5   -1253.4226254800      3.74e-04  
    6   -1253.4251709428      2.08e-04  
    7   -1253.4262903437      4.72e-05  
    8   -1253.4263335680      2.19e-05  
    9   -1253.4263454090      4.13e-06  Convergence criterion met
 ---------------------------------------
 SCF time:   CPU 139.47s  wall 140.00s 
 SCF   energy in the final basis set =    -1253.4263454090
 Total energy in the final basis set =    -1253.4263454090
 
 --------------------------------------------------------------
 
                    Orbital Energies (a.u.)
 --------------------------------------------------------------
 
 Alpha MOs
 -- Occupied --
-24.7471 -24.7362 -19.1679 -19.1677 -14.3776 -10.3590 -10.2357 -10.2356
-10.2351 -10.2344 -10.2342 -10.2150 -10.2149 -10.2099 -10.2062 -10.1981
-10.1956 -10.1956 -10.1950 -10.1860 -10.1859 -10.1841 -10.1836 -10.1828
-10.1826 -10.1775 -10.1773  -1.2875  -1.2266  -1.0579  -1.0577  -0.9970
 -0.8790  -0.8496  -0.8458  -0.8114  -0.7818  -0.7647  -0.7564  -0.7552
 -0.7301  -0.7189  -0.6958  -0.6849  -0.6540  -0.6379  -0.6276  -0.6142
 -0.5949  -0.5804  -0.5770  -0.5732  -0.5445  -0.5379  -0.5260  -0.5212
 -0.5190  -0.5040  -0.4894  -0.4826  -0.4652  -0.4642  -0.4640  -0.4614
 -0.4544  -0.4432  -0.4423  -0.4380  -0.4356  -0.4321  -0.4282  -0.4175
 -0.4156  -0.4131  -0.4071  -0.4056  -0.3890  -0.3805  -0.3772  -0.3680
 -0.3604  -0.3596  -0.3476  -0.3470  -0.3224  -0.3178  -0.3142  -0.3099
 -0.2859  -0.2723  -0.2636  -0.2277  -0.2272  -0.2064  -0.1763
 -- Virtual --
 -0.0344  -0.0255  -0.0094   0.0179   0.0390   0.0543   0.0673   0.0826
  0.0992   0.1020   0.1142   0.1179   0.1192   0.1374   0.1407   0.1445
  0.1508   0.1538   0.1583   0.1586   0.1624   0.1692   0.1721   0.1742
  0.1786   0.1857   0.1944   0.2008   0.2033   0.2085   0.2106   0.2140
  0.2343   0.2526   0.2646   0.2772   0.2777   0.2889   0.3040   0.3120
  0.3211   0.3274   0.3455   0.3546   0.3732   0.3910   0.3983   0.4011
  0.4109   0.4241   0.4719   0.4746   0.4788   0.4893   0.4941   0.5051
  0.5071   0.5163   0.5239   0.5293   0.5324   0.5345   0.5378   0.5411
  0.5482   0.5529   0.5577   0.5616   0.5639   0.5683   0.5699   0.5763
  0.5812   0.5824   0.5850   0.5867   0.5910   0.5956   0.5980   0.6053
  0.6175   0.6204   0.6230   0.6260   0.6387   0.6434   0.6453   0.6533
  0.6574   0.6609   0.6700   0.6857   0.6988   0.7178   0.7265   0.7336
  0.7468   0.7469   0.7531   0.7726   0.7889   0.7960   0.8087   0.8228
  0.8256   0.8306   0.8349   0.8419   0.8470   0.8487   0.8534   0.8544
  0.8592   0.8679   0.8732   0.8783   0.8815   0.8896   0.8927   0.9014
  0.9120   0.9181   0.9365   0.9403   0.9418   0.9478   0.9550   0.9763
  0.9817   0.9861   0.9902   0.9966   1.0088   1.0174   1.0227   1.0347
  1.0552   1.0673   1.0739   1.0743   1.0795   1.1002   1.1088   1.1199
  1.1342   1.1487   1.1576   1.1595   1.1676   1.1875   1.1946   1.2027
  1.2115   1.2163   1.2367   1.2396   1.2480   1.2648   1.2698   1.2789
  1.2855   1.3071   1.3334   1.3362   1.3385   1.3473   1.3640   1.3804
  1.3846   1.3865   1.3907   1.4002   1.4017   1.4335   1.4387   1.4432
  1.4452   1.4602   1.4624   1.4689   1.4790   1.4841   1.4886   1.4891
  1.5010   1.5059   1.5162   1.5299   1.5367   1.5559   1.5883   1.6145
  1.6304   1.6454   1.6770   1.7043   1.7242   1.7311   1.7360   1.7631
  1.7689   1.7791   1.7806   1.7877   1.7951   1.8086   1.8201   1.8304
  1.8343   1.8546   1.8589   1.8657   1.8753   1.8774   1.8930   1.8977
  1.9026   1.9121   1.9173   1.9269   1.9291   1.9373   1.9678   1.9757
  1.9862   1.9890   2.0008   2.0059   2.0127   2.0248   2.0339   2.0371
  2.0417   2.0718   2.0722   2.0756   2.0789   2.0957   2.1090   2.1125
  2.1189   2.1240   2.1392   2.1446   2.1507   2.1534   2.1594   2.1723
  2.2093   2.2273   2.2302   2.2314   2.2350   2.2395   2.2430   2.2692
  2.2818   2.2864   2.2939   2.2992   2.3185   2.3270   2.3499   2.3540
  2.3604   2.3658   2.3862   2.4135   2.4336   2.4463   2.4880   2.4885
  2.5094   2.5203   2.5338   2.5398   2.5602   2.5630   2.5897   2.5988
  2.6106   2.6258   2.6410   2.6548   2.6658   2.6699   2.6862   2.7009
  2.7117   2.7298   2.7400   2.7584   2.7749   2.7853   2.7957   2.8128
  2.8243   2.8640   2.8812   2.8965   2.9055   2.9295   2.9580   2.9908
  2.9999   3.0008   3.0554   3.1293   3.1369   3.1449   3.1976   3.2789
  3.3124   3.3997   3.4155   3.4988   3.5811   4.0626   4.0689   4.0741
  4.1045   4.1094   4.1228   4.1376   4.1383   4.1724   4.1939   4.2308
  4.2386   4.2861   4.3106   4.3140   4.3452   4.3649   4.3989   4.4817
  4.5276   4.5722   4.5993   4.7327   4.8118   4.8452   4.9127   5.2847
 --------------------------------------------------------------
 
          Ground-State Mulliken Net Atomic Charges

     Atom                 Charge (a.u.)
  ----------------------------------------
      1 C                    -0.210714
      2 O                    -0.513241
      3 C                     0.377073
      4 C                    -0.263613
      5 C                     0.069009
      6 C                     0.069257
      7 C                    -0.263462
      8 C                     0.376998
      9 O                    -0.513355
     10 C                    -0.210871
     11 C                    -0.209877
     12 C                    -0.183507
     13 C                     0.314433
     14 N                    -0.744322
     15 C                     0.296468
     16 C                    -0.164513
     17 C                    -0.209028
     18 C                     0.203308
     19 C                    -0.299568
     20 C                     0.542969
     21 F                    -0.235226
     22 F                    -0.248243
     23 C                    -0.209015
     24 C                    -0.164935
     25 C                     0.314973
     26 C                    -0.183851
     27 C                    -0.209798
     28 H                     0.166463
     29 H                     0.146082
     30 H                     0.146828
     31 H                     0.137285
     32 H                     0.137244
     33 H                     0.166459
     34 H                     0.146420
     35 H                     0.146819
     36 H                     0.127804
     37 H                     0.141079
     38 H                     0.152513
     39 H                     0.133159
     40 H                     0.160115
     41 H                     0.143742
     42 H                     0.153024
     43 H                     0.140222
     44 H                     0.127393
  ----------------------------------------
  Sum of atomic charges =     0.000000

 -----------------------------------------------------------------
                    Cartesian Multipole Moments
 -----------------------------------------------------------------
    Charge (ESU x 10^10)
                 0.0000
    Dipole Moment (Debye)
         X       1.1209      Y      -0.6344      Z       0.5657
       Tot       1.4067
    Quadrupole Moments (Debye-Ang)
        XX    -160.3993     XY       0.5299     YY    -122.7283
        XZ       2.9890     YZ      -2.3390     ZZ    -153.8151
    Octopole Moments (Debye-Ang^2)
       XXX      18.9219    XXY     -29.2814    XYY     -48.3950
       YYY      21.6986    XXZ      10.9395    XYZ     -14.1798
       YYZ       0.3309    XZZ      37.0271    YZZ      -2.0143
       ZZZ      -9.0279
    Hexadecapole Moments (Debye-Ang^3)
      XXXX  -11949.0293   XXXY      55.3192   XXYY   -2553.8544
      XYYY      75.3582   YYYY   -4789.2339   XXXZ      50.4425
      XXYZ     -19.4818   XYYZ      12.2844   YYYZ      32.7747
      XXZZ   -1946.9219   XYZZ      -5.8677   YYZZ   -1059.4544
      XZZZ     -49.0324   YZZZ     -17.6806   ZZZZ    -366.0718
 -----------------------------------------------------------------
Archival summary:
1\1\nia1977.scinet.local\SP\ProcedureUnspecified\6-31G*\2212217\rhickman\MonFeb718:41:522022MonFeb718:41:522022\0\\#,ProcedureUnspecified,6-31G*,\\0,1\N\C,1,1.38543\C,2,1.38401,1,130.043\H,3,1.07927,2,121.502,1,0.927126,0\C,3,1.38444,2,118.632,1,-178.135,0\H,5,1.07834,3,118.281,2,-179.841,0\C,1,1.38564,2,108.044,3,176.564,0\C,7,1.38401,1,130.039,2,176.622,0\H,8,1.07921,7,121.517,1,0.974373,0\C,8,1.38437,7,118.62,1,-178.144,0\H,10,1.0783,8,118.269,7,-179.812,0\C,1,1.3935,2,126.008,3,-3.64423,0\C,12,1.3949,1,120.527,2,-46.8229,0\H,13,1.07928,12,119.508,1,-1.39148,0\C,13,1.37756,12,120.208,1,179.973,0\H,15,1.08028,13,119.4,12,179.609,0\C,12,1.39491,1,120.546,2,133.217,0\H,17,1.07925,12,119.35,1,-1.68017,0\C,17,1.37849,12,120.674,1,179.667,0\H,19,1.07751,17,118.894,12,179.603,0\C,19,1.39728,17,120.757,12,0.343237,0\C,5,1.39732,3,121.315,2,0.53247,0\O,22,1.36761,5,124.341,3,-179.63,0\C,22,1.39123,5,120.166,3,0.999931,0\H,24,1.07749,22,119.358,5,178.607,0\C,24,1.38351,22,118.977,5,-1.00489,0\C,10,1.39737,8,121.324,7,0.537444,0\O,27,1.36751,10,124.337,8,-179.652,0\C,27,1.39122,10,120.165,8,0.987897,0\H,29,1.0775,27,119.363,10,178.628,0\C,29,1.38356,27,118.971,10,-1.00605,0\C,23,1.40486,22,118.767,5,0.143452,0\H,32,1.08906,23,105.646,22,179.74,0\H,32,1.09531,23,111.696,22,-61.6926,0\H,32,1.09533,23,111.691,22,61.1638,0\C,28,1.40496,27,118.76,10,0.356262,0\H,36,1.08906,28,105.644,27,179.597,0\H,36,1.09528,28,111.688,27,61.0179,0\H,36,1.0953,28,111.695,27,-61.8365,0\C,21,1.45191,19,123.647,17,179.95,0\H,40,1.08066,21,116.464,19,-178.744,0\C,40,1.32546,21,128.585,19,1.4601,0\F,42,1.32848,40,128.123,21,-0.0162705,0\F,42,1.33277,40,123.058,21,179.895,0\\\@

 Total job time:  140.30s(wall), 139.94s(cpu) 
 Mon Feb  7 18:41:52 2022

        *************************************************************
        *                                                           *
        *  Thank you very much for using Q-Chem.  Have a nice day.  *
        *                                                           *
        *************************************************************


