
Running Job 1 of 1 fragments/B005/conf-1/spe_input.inp
qchem fragments/B005/conf-1/spe_input.inp_334151.0 /gpfs/fs0/scratch/a/aspuru/rhickman/descriptor_computation/qchem334151/ 0
/scinet/niagara/software/commercial/qc52/exe/qcprog.exe_s fragments/B005/conf-1/spe_input.inp_334151.0 /gpfs/fs0/scratch/a/aspuru/rhickman/descriptor_computation/qchem334151/
                  Welcome to Q-Chem
     A Quantum Leap Into The Future Of Chemistry


 Q-Chem 5.2, Q-Chem, Inc., Pleasanton, CA (2019)

 License issued to: SRG Alan Aspuru-Guzik, University of Toronto

 Yihan Shao,  Zhengting Gan,  E. Epifanovsky,  A. T. B. Gilbert,  M. Wormit,  
 J. Kussmann,  A. W. Lange,  A. Behn,  Jia Deng,  Xintian Feng,  D. Ghosh,  
 M. Goldey,  P. R. Horn,  L. D. Jacobson,  I. Kaliman,  T. Kus,  A. Landau,  
 Jie Liu,  E. I. Proynov,  R. M. Richard,  R. P. Steele,  E. J. Sundstrom,  
 H. L. Woodcock III,  P. M. Zimmerman,  D. Zuev,  B. Albrecht,  E. Alguire,  
 S. A. Baeppler,  D. Barton,  Z. Benda,  Y. A. Bernard,  E. J. Berquist,  
 K. B. Bravaya,  H. Burton,  D. Casanova,  Chun-Min Chang,  Yunqing Chen,  
 A. Chien,  K. D. Closser,  M. P. Coons,  S. Coriani,  S. Dasgupta,  
 A. L. Dempwolff,  M. Diedenhofen,  Hainam Do,  R. G. Edgar,  Po-Tung Fang,  
 S. Faraji,  S. Fatehi,  Qingguo Feng,  K. D. Fenk,  J. Fosso-Tande,  
 J. Gayvert,  Qinghui Ge,  A. Ghysels,  G. Gidofalvi,  J. Gomes,  
 J. Gonthier,  A. Gunina,  D. Hait,  M. W. D. Hanson-Heine,  
 P. H. P. Harbach,  A. W. Hauser,  M. F. Herbst,  J. E. Herr,  
 E. G. Hohenstein,  Z. C. Holden,  Kerwin Hui,  B. C. Huynh,  T.-C. Jagau,  
 Hyunjun Ji,  B. Kaduk,  K. Khistyaev,  Jaehoon Kim,  P. Klunzinger,  K. Koh,  
 D. Kosenkov,  L. Koulias,  T. Kowalczyk,  C. M. Krauter,  A. Kunitsa,  
 Ka Un Lao,  A. Laurent,  K. V. Lawler,  Joonho Lee,  D. Lefrancois,  
 S. Lehtola,  D. S. Levine,  Yi-Pei Li,  You-Sheng Lin,  Fenglai Liu,  
 E. Livshits,  A. Luenser,  P. Manohar,  E. Mansoor,  S. F. Manzer,  
 Shan-Ping Mao,  Yuezhi Mao,  N. Mardirossian,  A. V. Marenich,  
 T. Markovich,  L. A. Martinez-Martinez,  S. A. Maurer,  N. J. Mayhall,  
 S. C. McKenzie,  J.-M. Mewes,  P. Morgante,  A. F. Morrison,  
 J. W. Mullinax,  K. Nanda,  T. S. Nguyen-Beck,  R. Olivares-Amaya,  
 J. A. Parkhill,  Zheng Pei,  T. M. Perrine,  F. Plasser,  P. Pokhilko,  
 S. Prager,  A. Prociuk,  E. Ramos,  D. R. Rehn,  F. Rob,  M. Scheurer,  
 M. Schneider,  N. Sergueev,  S. M. Sharada,  S. Sharma,  D. W. Small,  
 T. Stauch,  T. Stein,  Yu-Chuan Su,  A. J. W. Thom,  A. Tkatchenko,  
 T. Tsuchimochi,  N. M. Tubman,  L. Vogt,  M. L. Vidal,  O. Vydrov,  
 M. A. Watson,  J. Wenzel,  M. de Wergifosse,  T. A. Wesolowski,  A. White,  
 J. Witte,  A. Yamada,  Jun Yang,  K. Yao,  S. Yeganeh,  S. R. Yost,  
 Zhi-Qiang You,  A. Zech,  Igor Ying Zhang,  Xing Zhang,  Yan Zhao,  
 Ying Zhu,  B. R. Brooks,  G. K. L. Chan,  C. J. Cramer,  M. S. Gordon,  
 W. J. Hehre,  A. Klamt,  M. W. Schmidt,  C. D. Sherrill,  D. G. Truhlar,  
 A. Aspuru-Guzik,  R. Baer,  A. T. Bell,  N. A. Besley,  Jeng-Da Chai,  
 A. E. DePrince, III,  R. A. DiStasio Jr.,  A. Dreuw,  B. D. Dunietz,  
 T. R. Furlani,  Chao-Ping Hsu,  Yousung Jung,  Jing Kong,  D. S. Lambrecht,  
 WanZhen Liang,  C. Ochsenfeld,  V. A. Rassolov,  L. V. Slipchenko,  
 J. E. Subotnik,  T. Van Voorhis,  J. M. Herbert,  A. I. Krylov,  
 P. M. W. Gill,  M. Head-Gordon

 Contributors to earlier versions of Q-Chem not listed above: 
 R. D. Adamson,  B. Austin,  J. Baker,  G. J. O. Beran,  K. Brandhorst,  
 S. T. Brown,  E. F. C. Byrd,  A. K. Chakraborty,  C.-L. Cheng,  
 Siu Hung Chien,  D. M. Chipman,  D. L. Crittenden,  H. Dachsel,  
 R. J. Doerksen,  A. D. Dutoi,  L. Fusti-Molnar,  W. A. Goddard III,  
 A. Golubeva-Zadorozhnaya,  S. R. Gwaltney,  G. Hawkins,  A. Heyden,  
 S. Hirata,  G. Kedziora,  F. J. Keil,  C. Kelley,  Jihan Kim,  R. A. King,  
 R. Z. Khaliullin,  P. P. Korambath,  W. Kurlancheek,  A. M. Lee,  M. S. Lee,  
 S. V. Levchenko,  Ching Yeh Lin,  D. Liotard,  R. C. Lochan,  I. Lotan,  
 P. E. Maslen,  N. Nair,  D. P. O'Neill,  D. Neuhauser,  E. Neuscamman,  
 C. M. Oana,  R. Olson,  B. Peters,  R. Peverati,  P. A. Pieniazek,  
 Y. M. Rhee,  J. Ritchie,  M. A. Rohrdanz,  E. Rosta,  N. J. Russ,  
 H. F. Schaefer III,  N. E. Schultz,  N. Shenvi,  A. C. Simmonett,  A. Sodt,  
 D. Stuck,  K. S. Thanthiriwatte,  V. Vanovschi,  Tao Wang,  A. Warshel,  
 C. F. Williams,  Q. Wu,  X. Xu,  W. Zhang

 Please cite Q-Chem as follows:
 Y. Shao et al., Mol. Phys. 113, 184-215 (2015)
 DOI: 10.1080/00268976.2014.952696

 Q-Chem 5.2.1 for Intel X86 EM64T Linux

 Parts of Q-Chem use Armadillo 8.300.2 (Tropical Shenanigans).
 http://arma.sourceforge.net/

 Q-Chem begins on Tue Feb  8 15:13:35 2022  

Host: 
0

     Scratch files written to /gpfs/fs0/scratch/a/aspuru/rhickman/descriptor_computation/qchem334151//
 Jul1719 |scratch|qcdevops|jenkins|workspace|build_RNUM -1
Processing $rem in /scinet/niagara/software/commercial/qc52/config/preferences:
	 MEM_TOTAL  4000 
NAlpha2: 86
NElect   86
Mult     1

Checking the input file for inconsistencies... 	...done.

--------------------------------------------------------------
User input:
--------------------------------------------------------------
$molecule
0 1
C        -4.40401472050000    1.50842512420000   -0.05018771830000
C        -3.09727310710000    1.70647145640000    0.07079615990000
C        -2.06285362700000    0.68107902200000    0.03313425000000
C        -2.32912442690000   -0.69160600760000   -0.01889786870000
N        -1.39040459790000   -1.61600340520000   -0.05799857210000
C        -0.12332241370000   -1.25074722170000   -0.04568247700000
C         0.28497286520000    0.08683260250000    0.01352514010000
C         1.67209731270000    0.52022211810000    0.03527917740000
C         2.76367565540000   -0.22987153990000    0.00522517430000
F         2.84395041110000   -1.55131803820000   -0.05180159120000
F         3.99295542070000    0.27827423030000    0.02963953470000
C        -0.72032293130000    1.05246540270000    0.05368316180000
H        -5.09815764060000    2.33020386820000   -0.01284122990000
H        -4.83415268940000    0.53253752010000   -0.19439437270000
H        -2.72468946500000    2.71533652900000    0.20341429570000
H        -3.34236114590000   -1.06744833850000   -0.02438540360000
H         0.58827287470000   -2.06189271460000   -0.08253181640000
H         1.84391808700000    1.58637412190000    0.08156678200000
H        -0.45518257160000    2.10061965660000    0.09847087630000
$end

$rem
BASIS = 6-31G*
GUI = 2
METHOD = B3LYP
PRINT_ORBITALS false
MOLDEN_FORMAT false
--------------------------------------------------------------
 ----------------------------------------------------------------
             Standard Nuclear Orientation (Angstroms)
    I     Atom           X                Y                Z
 ----------------------------------------------------------------
    1      C       4.4922906034     0.5641486486     0.0705437322
    2      C       3.2528258938     1.0274026725    -0.0321988380
    3      C       2.0319503962     0.2322445592    -0.0245621529
    4      C       2.0142988082    -1.1668827322    -0.0262694266
    5      N       0.9076184754    -1.8826669542    -0.0141897107
    6      C      -0.2590515945    -1.2680102595    -0.0023946735
    7      C      -0.3875957086     0.1258244656    -0.0080100544
    8      C      -1.6579981096     0.8318391992    -0.0021042357
    9      C      -2.8790111537     0.3179357439     0.0087309752
   10      F      -3.2256111905    -0.9610171707     0.0167803891
   11      F      -3.9796885186     1.0652132183     0.0134892126
   12      C       0.7926398334     0.8685059731    -0.0201448773
   13      H       5.3386648725     1.2290184873     0.0583719590
   14      H       4.7156181662    -0.4834632623     0.1744905030
   15      H       3.0925498466     2.0951740279    -0.1238001276
   16      H       2.9302494557    -1.7401923225    -0.0432029587
   17      H      -1.1203590530    -1.9189195776     0.0098225462
   18      H      -1.6100286468     1.9116635388    -0.0069356268
   19      H       0.7455795999     1.9495737369    -0.0233874286
 ----------------------------------------------------------------
 Molecular Point Group                 C1    NOp =  1
 Largest Abelian Subgroup              C1    NOp =  1
 Nuclear Repulsion Energy =         632.45083077 hartrees
 There are       43 alpha and       43 beta electrons
 Requested basis set is 6-31G(d)
 There are 62 shells and 194 basis functions

 Total QAlloc Memory Limit   4000 MB
 Mega-Array Size       188 MB
 MEM_STATIC part       192 MB
 A cutoff of  1.0D-08 yielded   1329 shell pairs
 There are     13729 function pairs
 Smallest overlap matrix eigenvalue = 5.83E-04

 Scale SEOQF with 1.000000e-02/1.000000e-01/1.000000e+00

 Standard Electronic Orientation quadrupole field applied
 Nucleus-field energy     =     0.0000000092 hartrees
 Guess from superposition of atomic densities
 Warning:  Energy on first SCF cycle will be non-variational
 SAD guess density has 86.000000 electrons

 -----------------------------------------------------------------------
  General SCF calculation program by
  Eric Jon Sundstrom, Paul Horn, Yuezhi Mao, Dmitri Zuev, Alec White,
  David Stuck, Shaama M.S., Shane Yost, Joonho Lee, David Small,
  Daniel Levine, Susi Lehtola, Hugh Burton, Evgeny Epifanovsky,
  Bang C. Huynh
 -----------------------------------------------------------------------
 Exchange:     0.2000 Hartree-Fock + 0.0800 Slater + 0.7200 B88
 Correlation:  0.1900 VWN1RPA + 0.8100 LYP
 Using SG-1 standard quadrature grid
 A restricted SCF calculation will be
 performed using DIIS
 SCF converges when DIIS error is below 1.0e-05
 ---------------------------------------
  Cycle       Energy         DIIS error
 ---------------------------------------
    1    -604.2804970492      5.76e-02  
    2    -601.3671468039      6.16e-03  
    3    -601.2204502780      8.39e-03  
    4    -601.5407312918      1.43e-03  
    5    -601.5500110834      4.23e-04  
    6    -601.5506160007      2.20e-04  
    7    -601.5508321471      6.21e-05  
    8    -601.5508496357      2.05e-05  
    9    -601.5508515721      4.59e-06  Convergence criterion met
 ---------------------------------------
 SCF time:   CPU 21.25s  wall 22.00s 
 SCF   energy in the final basis set =     -601.5508515721
 Total energy in the final basis set =     -601.5508515721
 
 --------------------------------------------------------------
 
                    Orbital Energies (a.u.)
 --------------------------------------------------------------
 
 Alpha MOs
 -- Occupied --
-24.7518 -24.7418 -14.3283 -10.3660 -10.2201 -10.2199 -10.2169 -10.2120
-10.2090 -10.2078 -10.2011 -10.1902  -1.2938  -1.2325  -0.9515  -0.8410
 -0.8230  -0.7693  -0.7413  -0.6660  -0.6399  -0.6308  -0.5871  -0.5745
 -0.5388  -0.5269  -0.5217  -0.4878  -0.4714  -0.4495  -0.4481  -0.4404
 -0.4294  -0.4191  -0.4120  -0.4074  -0.3753  -0.3681  -0.3289  -0.3205
 -0.2517  -0.2512  -0.2279
 -- Virtual --
 -0.0491  -0.0307   0.0199   0.0805   0.0830   0.1102   0.1132   0.1432
  0.1477   0.1636   0.1748   0.1915   0.1938   0.2126   0.2652   0.2797
  0.2918   0.3308   0.3594   0.3730   0.3912   0.4388   0.4493   0.4611
  0.4855   0.5093   0.5149   0.5298   0.5535   0.5574   0.5641   0.5696
  0.5746   0.5924   0.6067   0.6159   0.6180   0.6385   0.6611   0.6658
  0.6784   0.6990   0.7347   0.7586   0.7732   0.8083   0.8198   0.8414
  0.8577   0.8717   0.8754   0.8788   0.8886   0.9225   0.9427   0.9715
  0.9813   1.0092   1.0551   1.0670   1.0961   1.1057   1.1333   1.1530
  1.1687   1.1799   1.1997   1.2077   1.2456   1.2695   1.2938   1.3178
  1.3301   1.3538   1.3950   1.4148   1.4381   1.4531   1.4638   1.4828
  1.4893   1.5026   1.5099   1.5226   1.5746   1.6385   1.6664   1.6884
  1.7392   1.7677   1.7757   1.8017   1.8297   1.8351   1.8476   1.8604
  1.8765   1.8805   1.9346   1.9574   1.9762   1.9929   2.0090   2.0199
  2.0220   2.0832   2.1001   2.1360   2.1692   2.1966   2.2123   2.2251
  2.2476   2.2519   2.3021   2.3456   2.3484   2.3877   2.4278   2.4945
  2.5059   2.5220   2.5576   2.5668   2.6339   2.6416   2.6672   2.6949
  2.7269   2.8201   2.8738   2.9021   2.9176   2.9677   3.0404   3.1241
  3.1523   3.3175   3.4544   4.0634   4.0752   4.1011   4.1208   4.1668
  4.2228   4.2419   4.2996   4.4802   4.6876   4.7973   5.2923
 --------------------------------------------------------------
 
          Ground-State Mulliken Net Atomic Charges

     Atom                 Charge (a.u.)
  ----------------------------------------
      1 C                    -0.348166
      2 C                    -0.114637
      3 C                     0.157243
      4 C                    -0.013216
      5 N                    -0.404740
      6 C                    -0.021553
      7 C                     0.173210
      8 C                    -0.301904
      9 C                     0.552320
     10 F                    -0.228864
     11 F                    -0.244494
     12 C                    -0.226847
     13 H                     0.149735
     14 H                     0.151733
     15 H                     0.130323
     16 H                     0.139654
     17 H                     0.149931
     18 H                     0.162773
     19 H                     0.137497
  ----------------------------------------
  Sum of atomic charges =     0.000000

 -----------------------------------------------------------------
                    Cartesian Multipole Moments
 -----------------------------------------------------------------
    Charge (ESU x 10^10)
                 0.0000
    Dipole Moment (Debye)
         X       0.8633      Y       2.3936      Z       0.0000
       Tot       2.5446
    Quadrupole Moments (Debye-Ang)
        XX     -63.0340     XY       1.8967     YY     -67.3779
        XZ       0.1312     YZ      -0.2569     ZZ     -69.1183
    Octopole Moments (Debye-Ang^2)
       XXX      -5.7484    XXY      -3.4310    XYY     -16.9154
       YYY      20.9266    XXZ       1.0698    XYZ      -0.7008
       YYZ      -0.2090    XZZ     -26.3388    YZZ      -1.9777
       ZZZ       0.2415
    Hexadecapole Moments (Debye-Ang^3)
      XXXX   -2609.5607   XXXY       7.6628   XXYY    -513.6412
      XYYY      12.7260   YYYY    -525.5379   XXXZ       6.5074
      XXYZ      -2.5093   XYYZ      -1.2590   YYYZ      -1.1679
      XXZZ    -485.0951   XYZZ      -6.6155   YYZZ     -99.2150
      XZZZ      -1.3021   YZZZ      -0.1670   ZZZZ     -65.5653
 -----------------------------------------------------------------
Archival summary:
1\1\nia2015.scinet.local\SP\ProcedureUnspecified\6-31G*\2197\rhickman\TueFeb815:13:572022TueFeb815:13:572022\0\\#,ProcedureUnspecified,6-31G*,\\0,1\F\C,1,1.32511\C,2,1.3248,1,127.99\H,3,1.0809,2,115.37,1,-179.986,0\F,2,1.33039,1,109.009,3,-179.986,0\C,3,1.45341,2,128.112,1,0.00393205,0\C,6,1.39452,3,118.757,2,179.972,0\H,7,1.0821,6,119.689,3,0.0946637,0\C,7,1.3931,6,120.644,3,179.924,0\C,9,1.39924,7,116.453,6,0.459571,0\H,10,1.08071,9,121.317,7,179.16,0\N,10,1.31804,9,123.615,7,-0.508903,0\C,12,1.31873,10,119.326,9,0.14023,0\H,13,1.07967,12,115.142,10,-179.839,0\C,9,1.45701,7,119.748,6,-179.77,0\H,15,1.08361,9,114.474,7,-5.22964,0\C,15,1.32719,9,126.274,7,174.231,0\H,17,1.07618,15,122.756,9,-0.0997899,0\H,17,1.07636,15,121.19,9,-179.814,0\\\@

 Total job time:  21.47s(wall), 21.39s(cpu) 
 Tue Feb  8 15:13:57 2022

        *************************************************************
        *                                                           *
        *  Thank you very much for using Q-Chem.  Have a nice day.  *
        *                                                           *
        *************************************************************


