
Running Job 1 of 1 tidas/B036/conf-0/spe_input.inp
qchem tidas/B036/conf-0/spe_input.inp_134685.0 /home/a/aspuru/seifridm/acdc_laser/descriptor_computation/qchem134685/ 0
/gpfs/fs1/scinet/niagara/software/commercial/qc54/exe/qcprog.exe_s tidas/B036/conf-0/spe_input.inp_134685.0 /home/a/aspuru/seifridm/acdc_laser/descriptor_computation/qchem134685/
                  Welcome to Q-Chem
     A Quantum Leap Into The Future Of Chemistry


 Q-Chem 5.4, Q-Chem, Inc., Pleasanton, CA (2021)

 License issued to: SRG Alan Aspuru-Guzik, University of Toronto

 E. Epifanovsky,  A. T. B. Gilbert,  Xintian Feng,  Joonho Lee,  Yuezhi Mao,  
 N. Mardirossian,  P. Pokhilko,  A. White,  M. Wormit,  M. P. Coons,  
 A. L. Dempwolff,  Zhengting Gan,  D. Hait,  P. R. Horn,  L. D. Jacobson,  
 I. Kaliman,  J. Kussmann,  A. W. Lange,  Ka Un Lao,  D. S. Levine,  Jie Liu,  
 S. C. McKenzie,  A. F. Morrison,  K. Nanda,  F. Plasser,  D. R. Rehn,  
 M. L. Vidal,  Zhi-Qiang You,  Ying Zhu,  B. Alam,  B. Albrecht,  
 A. Aldossary,  E. Alguire,  J. H. Andersen,  D. Barton,  K. Begam,  A. Behn,  
 Y. A. Bernard,  E. J. Berquist,  H. Burton,  A. Carreras,  K. Carter-Fenk,  
 Romit Chakraborty,  A. D. Chien,  K. D. Closser,  V. Cofer-Shabica,  
 S. Dasgupta,  Jia Deng,  M. de Wergifosse,  M. Diedenhofen,  Hainam Do,  
 S. Ehlert,  Po-Tung Fang,  S. Fatehi,  Qingguo Feng,  T. Friedhoff,  
 J. Gayvert,  Qinghui Ge,  G. Gidofalvi,  M. Goldey,  J. Gomes,  
 C. Gonzalez-Espinoza,  S. Gulania,  A. Gunina,  M. W. D. Hanson-Heine,  
 P. H. P. Harbach,  A. W. Hauser,  M. F. Herbst,  M. Hernandez Vera,  
 M. Hodecker,  Z. C. Holden,  S. Houck,  Xunkun Huang,  Kerwin Hui,  
 B. C. Huynh,  M. Ivanov,  Hyunjun Ji,  Hanjie Jiang,  B. Kaduk,  S. Kaehler,  
 K. Khistyaev,  Jaehoon Kim,  P. Klunzinger,  Z. Koczor-Benda,  
 Joong Hoon Koh,  D. Kosenkov,  L. Koulias,  T. Kowalczyk,  C. M. Krauter,  
 K. Kue,  A. Kunitsa,  T. Kus,  A. Landau,  K. V. Lawler,  D. Lefrancois,  
 S. Lehtola,  Rain Li,  Yi-Pei Li,  Jiashu Liang,  M. Liebenthal,  
 Hung-Hsuan Lin,  You-Sheng Lin,  Fenglai Liu,  Kuan-Yu Liu,  
 M. Loipersberger,  A. Luenser,  A. Manjanath,  P. Manohar,  E. Mansoor,  
 S. F. Manzer,  Shan-Ping Mao,  A. V. Marenich,  T. Markovich,  S. Mason,  
 S. A. Maurer,  P. F. McLaughlin,  M. F. S. J. Menger,  J.-M. Mewes,  
 S. A. Mewes,  P. Morgante,  J. W. Mullinax,  K. J. Oosterbaan,  G. Paran,  
 Alexander C. Paul,  Suranjan K. Paul,  F. Pavosevic,  Zheng Pei,  S. Prager,  
 E. I. Proynov,  E. Ramos,  B. Rana,  A. E. Rask,  A. Rettig,  R. M. Richard,  
 F. Rob,  E. Rossomme,  T. Scheele,  M. Scheurer,  M. Schneider,  
 N. Sergueev,  S. M. Sharada,  W. Skomorowski,  D. W. Small,  C. J. Stein,  
 Yu-Chuan Su,  E. J. Sundstrom,  Zhen Tao,  J. Thirman,  T. Tsuchimochi,  
 N. M. Tubman,  S. P. Veccham,  O. Vydrov,  J. Wenzel,  J. Witte,  A. Yamada,  
 Kun Yao,  S. Yeganeh,  S. R. Yost,  A. Zech,  Igor Ying Zhang,  Xing Zhang,  
 Yu Zhang,  D. Zuev,  A. Aspuru-Guzik,  A. T. Bell,  N. A. Besley,  
 K. B. Bravaya,  B. R. Brooks,  D. Casanova,  Jeng-Da Chai,  S. Coriani,  
 C. J. Cramer,  A. E. DePrince, III,  R. A. DiStasio Jr.,  A. Dreuw,  
 B. D. Dunietz,  T. R. Furlani,  W. A. Goddard III,  S. Grimme,  
 S. Hammes-Schiffer,  T. Head-Gordon,  W. J. Hehre,  Chao-Ping Hsu,  
 T.-C. Jagau,  Yousung Jung,  A. Klamt,  Jing Kong,  D. S. Lambrecht,  
 WanZhen Liang,  N. J. Mayhall,  C. W. McCurdy,  J. B. Neaton,  T. Neudecker,  
 C. Ochsenfeld,  J. A. Parkhill,  R. Peverati,  V. A. Rassolov,  Yihan Shao,  
 L. V. Slipchenko,  R. P. Steele,  J. E. Subotnik,  A. J. W. Thom,  
 A. Tkatchenko,  D. G. Truhlar,  T. Van Voorhis,  T. A. Wesolowski,  
 K. B. Whaley,  H. L. Woodcock III,  P. M. Zimmerman,  S. Faraji,  
 P. M. W. Gill,  M. Head-Gordon,  J. M. Herbert,  A. I. Krylov

 Additional authors since Version 5.4.0: 
 Chandrima Chakravarty,  L. Cunha,  R. Kang,  Yongbin Kim,  S. Kotaru,  
 Shaozhi Li,  Xiangyuan Li,  F. Matz,  A. Molle,  V. Parravicini,  
 Haisheng Ren,  Hengyuan Shen,  Yingli Su,  Hung-Yi Tsai,  C. Utku,  
 Fang Wang,  Jeff Yang,  F. Zeller

 Contributors to earlier versions of Q-Chem not listed above: 
 R. D. Adamson,  B. Austin,  R. Baer,  J. Baker,  G. J. O. Beran,  
 K. Brandhorst,  S. T. Brown,  E. F. C. Byrd,  Arup K. Chakraborty,  
 G. K. L. Chan,  Chun-Min Chang,  Yunqing Chen,  C.-L. Cheng,  
 Siu Hung Chien,  D. M. Chipman,  D. L. Crittenden,  H. Dachsel,  
 R. J. Doerksen,  A. D. Dutoi,  R. G. Edgar,  J. Fosso-Tande,  
 L. Fusti-Molnar,  D. Ghosh,  A. Ghysels,  A. Golubeva-Zadorozhnaya,  
 J. Gonthier,  M. S. Gordon,  S. R. Gwaltney,  G. Hawkins,  J. E. Herr,  
 A. Heyden,  S. Hirata,  E. G. Hohenstein,  G. Kedziora,  F. J. Keil,  
 C. Kelley,  Jihan Kim,  R. A. King,  R. Z. Khaliullin,  P. P. Korambath,  
 W. Kurlancheek,  A. Laurent,  A. M. Lee,  M. S. Lee,  S. V. Levchenko,  
 Ching Yeh Lin,  D. Liotard,  E. Livshits,  R. C. Lochan,  I. Lotan,  
 L. A. Martinez-Martinez,  P. E. Maslen,  N. Nair,  D. P. O'Neill,  
 D. Neuhauser,  E. Neuscamman,  C. M. Oana,  R. Olivares-Amaya,  R. Olson,  
 T. M. Perrine,  B. Peters,  P. A. Pieniazek,  A. Prociuk,  Y. M. Rhee,  
 J. Ritchie,  M. A. Rohrdanz,  E. Rosta,  N. J. Russ,  H. F. Schaefer III,  
 M. W. Schmidt,  N. E. Schultz,  S. Sharma,  N. Shenvi,  C. D. Sherrill,  
 A. C. Simmonett,  A. Sodt,  T. Stein,  D. Stuck,  K. S. Thanthiriwatte,  
 V. Vanovschi,  L. Vogt,  Tao Wang,  A. Warshel,  M. A. Watson,  
 C. F. Williams,  Q. Wu,  X. Xu,  Jun Yang,  W. Zhang,  Yan Zhao

   Please cite Q-Chem as follows:
  "Software for the frontiers of quantum chemistry:
   An overview of developments in the Q-Chem 5 package"
   J. Chem. Phys. 155, 084801 (2021)
   https://doi.org/10.1063/5.0055522 (open access)

 Q-Chem 5.4.2 for Intel X86 EM64T Linux

 Parts of Q-Chem use Armadillo 9.900.5 (Nocturnal Misbehaviour).
 http://arma.sourceforge.net/

 Q-Chem begins on Fri Aug 12 13:11:43 2022  

 Host: 
0

     Scratch files written to /home/a/aspuru/seifridm/acdc_laser/descriptor_computation/qchem134685//
 Dec1321 |scratch|qcdevops|jenkins|workspace|build_RNUM 6959   
 Processing $rem in /gpfs/fs1/scinet/niagara/software/commercial/qc54/config/preferences:
 Processing $rem in /home/a/aspuru/seifridm/.qchemrc:

 Checking the input file for inconsistencies... 	...done.

--------------------------------------------------------------
User input:
--------------------------------------------------------------
$molecule
0 1
C           -4.06143434640000       -2.06412259630000       -0.00715975170000
C           -2.73549263920000       -1.99511367100000        0.00009760510000
C           -1.92377988590000       -0.78486953860000        0.00046309360000
C           -2.46453615560000        0.49948693670000        0.00512758040000
C           -1.65177834080000        1.61632816060000        0.00461257710000
C           -0.26795907620000        1.48966650660000       -0.00070887050000
O            0.59596312420000        2.54104059670000       -0.00199650410000
C            0.07700745120000        3.84884953960000        0.00488463390000
C            0.30629580030000        0.19864287560000       -0.00453995250000
C            1.75657773310000        0.10176297030000       -0.00986258800000
C            2.51289703580000       -0.98468246460000       -0.00063932090000
F            2.12938849620000       -2.25836742990000        0.01606924050000
F            3.84603471140000       -0.94240752570000       -0.00677945990000
C           -0.53514313990000       -0.90662917770000       -0.00378482570000
H           -4.57068662020000       -3.01234888170000       -0.00733222560000
H           -4.69319904050000       -1.19253169610000       -0.01371511760000
H           -2.16394045030000       -2.91503453760000        0.00566100560000
H           -3.53406048310000        0.63764502730000        0.00995425210000
H           -2.11102469600000        2.59228833660000        0.00847738920000
H            0.94445063480000        4.50723600430000        0.00265418110000
H           -0.51893625680000        4.04061540930000        0.90262083880000
H           -0.52809187390000        4.04675170210000       -0.88536055710000
H            2.28897169490000        1.04062485200000       -0.02170552400000
H           -0.10656269060000       -1.89582565250000       -0.00750849530000
$end

$rem
BASIS = 6-31G*
GUI = 2
METHOD = B3LYP
PRINT_ORBITALS false
MOLDEN_FORMAT false
$end
--------------------------------------------------------------
 ----------------------------------------------------------------
             Standard Nuclear Orientation (Angstroms)
    I     Atom           X                Y                Z
 ----------------------------------------------------------------
    1      C       4.1456477313     1.7259426023    -0.0067750731
    2      C       2.8192345086     1.7851984169     0.0005066157
    3      C       1.8945293160     0.6589263038     0.0006535763
    4      C       2.3088307734    -0.6716170689     0.0050458378
    5      C       1.3920981211    -1.7048211066     0.0043310032
    6      C       0.0269581554    -1.4452204628    -0.0009253435
    7      O      -0.9343830142    -2.4083256958    -0.0023982537
    8      C      -0.5440434044    -3.7601089390     0.0042065987
    9      C      -0.4200422506    -0.1048088305    -0.0044819046
   10      C      -1.8542084793     0.1315622241    -0.0097434801
   11      C      -2.5021639930     1.2859156187    -0.0002813424
   12      F      -1.9975431057     2.5166478211     0.0166707368
   13      F      -3.8331600858     1.3724777324    -0.0063915995
   14      C       0.5241213484     0.9141124444    -0.0035300832
   15      H       4.7440209241     2.6206048395    -0.0067726869
   16      H       4.6903618499     0.7974592712    -0.0135227900
   17      H       2.3391154206     2.7559762999     0.0062702946
   18      H       3.3600330791    -0.9123331204     0.0098141477
   19      H       1.7550281160    -2.7205419664     0.0079875663
   20      H      -1.4709685528    -4.3317204292     0.0018695088
   21      H       0.0306237269    -4.0086654611     0.9018873265
   22      H       0.0391278223    -4.0152959538    -0.8860955225
   23      H      -2.4747118850    -0.7515438712    -0.0217587391
   24      H       0.1929913743     1.9400487618    -0.0070437402
 ----------------------------------------------------------------
 Molecular Point Group                 C1    NOp =  1
 Largest Abelian Subgroup              C1    NOp =  1
 Nuclear Repulsion Energy =         845.01968677 hartrees
 There are       51 alpha and       51 beta electrons
 Requested basis set is 6-31G(d)
 There are 76 shells and 230 basis functions

 Total QAlloc Memory Limit   8000 MB
 Mega-Array Size       188 MB
 MEM_STATIC part       192 MB
 A cutoff of  1.0D-08 yielded   1832 shell pairs
 There are     18056 function pairs
 Smallest overlap matrix eigenvalue = 3.36E-04

 Scale SEOQF with 1.000000e-01/1.000000e-01/1.000000e+00

 Standard Electronic Orientation quadrupole field applied
 Nucleus-field energy     =     0.0000000436 hartrees
 Guess from superposition of atomic densities
 Warning:  Energy on first SCF cycle will be non-variational
 SAD guess density has 102.000000 electrons

 -----------------------------------------------------------------------
  General SCF calculation program by
  Eric Jon Sundstrom, Paul Horn, Yuezhi Mao, Dmitri Zuev, Alec White,
  David Stuck, Shaama M.S., Shane Yost, Joonho Lee, David Small,
  Daniel Levine, Susi Lehtola, Hugh Burton, Evgeny Epifanovsky,
  Bang C. Huynh
 -----------------------------------------------------------------------
 Exchange:     0.2000 Hartree-Fock + 0.0800 Slater + 0.7200 B88
 Correlation:  0.1900 VWN1RPA + 0.8100 LYP
 Using SG-1 standard quadrature grid
 A restricted SCF calculation will be
 performed using DIIS
 SCF converges when DIIS error is below 1.0e-05
 ---------------------------------------
  Cycle       Energy         DIIS error
 ---------------------------------------
    1    -703.1450232896      5.26e-02  
    2    -699.8098601109      5.79e-03  
    3    -699.6415039009      7.63e-03  
    4    -700.0249718835      1.38e-03  
    5    -700.0374331746      3.99e-04  
    6    -700.0382232101      1.84e-04  
    7    -700.0384394236      4.80e-05  
    8    -700.0384541133      1.76e-05  
    9    -700.0384564026      4.48e-06  Convergence criterion met
 ---------------------------------------
 SCF time:   CPU 54.46s  wall 55.00s 
 SCF   energy in the final basis set =     -700.0384564026
 Total energy in the final basis set =     -700.0384564026
 
 --------------------------------------------------------------
 
                    Orbital Energies (a.u.)
 --------------------------------------------------------------
 
 Alpha MOs
 -- Occupied --
-24.7382 -24.7271 -19.1876 -10.3492 -10.2515 -10.2472 -10.2018 -10.1941
-10.1896 -10.1889 -10.1883 -10.1861 -10.1857 -10.1744  -1.2782  -1.2172
 -1.0779  -0.8672  -0.8105  -0.7836  -0.7453  -0.7389  -0.6957  -0.6450
 -0.6155  -0.6086  -0.5724  -0.5556  -0.5393  -0.5121  -0.5093  -0.5009
 -0.4792  -0.4712  -0.4426  -0.4396  -0.4344  -0.4338  -0.4276  -0.4142
 -0.4045  -0.3922  -0.3786  -0.3670  -0.3438  -0.3401  -0.3288  -0.3023
 -0.2751  -0.2287  -0.2006
 -- Virtual --
 -0.0303  -0.0136   0.0481   0.0925   0.0953   0.1019   0.1162   0.1182
  0.1294   0.1485   0.1559   0.1624   0.1643   0.1842   0.1956   0.1967
  0.2205   0.2403   0.2517   0.2867   0.3107   0.3295   0.3530   0.3677
  0.4071   0.4208   0.4488   0.4716   0.4918   0.4988   0.5181   0.5237
  0.5362   0.5398   0.5482   0.5642   0.5696   0.5724   0.5874   0.5903
  0.5994   0.6074   0.6103   0.6209   0.6393   0.6455   0.6669   0.6755
  0.7026   0.7102   0.7286   0.7662   0.7853   0.8101   0.8176   0.8334
  0.8398   0.8554   0.8601   0.8609   0.8846   0.8966   0.9097   0.9289
  0.9622   0.9718   0.9833   1.0031   1.0048   1.0183   1.0555   1.0669
  1.0978   1.1133   1.1291   1.1429   1.1680   1.1882   1.1995   1.2132
  1.2239   1.2487   1.2674   1.2907   1.3180   1.3423   1.3436   1.3809
  1.4102   1.4110   1.4129   1.4245   1.4463   1.4724   1.4763   1.4828
  1.5025   1.5194   1.5292   1.5316   1.5935   1.6658   1.6819   1.7026
  1.7420   1.7826   1.7884   1.7912   1.8059   1.8394   1.8422   1.8508
  1.8599   1.8644   1.9225   1.9374   1.9538   1.9728   1.9855   2.0013
  2.0097   2.0114   2.0363   2.0470   2.0732   2.0790   2.1159   2.1286
  2.1405   2.1566   2.1711   2.2085   2.2191   2.2426   2.2468   2.2763
  2.3125   2.3210   2.3508   2.3698   2.4106   2.4357   2.5052   2.5149
  2.5248   2.5619   2.5772   2.6174   2.6400   2.6500   2.6815   2.7163
  2.7263   2.7430   2.8269   2.8692   2.9146   2.9645   3.0106   3.0374
  3.0910   3.1330   3.2069   3.3602   3.4851   4.0510   4.0929   4.0989
  4.1368   4.1514   4.1937   4.2653   4.2892   4.3635   4.4995   4.5470
  4.7340   4.8849   5.3411
 --------------------------------------------------------------
 
          Ground-State Mulliken Net Atomic Charges

     Atom                 Charge (a.u.)
  ----------------------------------------
      1 C                    -0.359935
      2 C                    -0.110822
      3 C                     0.190014
      4 C                    -0.193771
      5 C                    -0.195269
      6 C                     0.324156
      7 O                    -0.510654
      8 C                    -0.216229
      9 C                     0.130210
     10 C                    -0.286716
     11 C                     0.545555
     12 F                    -0.238201
     13 F                    -0.251636
     14 C                    -0.295804
     15 H                     0.141979
     16 H                     0.138352
     17 H                     0.127003
     18 H                     0.127645
     19 H                     0.131898
     20 H                     0.172050
     21 H                     0.155321
     22 H                     0.155274
     23 H                     0.180146
     24 H                     0.139434
  ----------------------------------------
  Sum of atomic charges =     0.000000

 -----------------------------------------------------------------
                    Cartesian Multipole Moments
 -----------------------------------------------------------------
    Charge (ESU x 10^10)
                 0.0000
    Dipole Moment (Debye)
         X       0.9752      Y      -2.6002      Z       0.0013
       Tot       2.7771
    Quadrupole Moments (Debye-Ang)
        XX     -79.5144     XY       1.2935     YY     -66.8350
        XZ       0.0129     YZ      -0.0304     ZZ     -82.2370
    Octopole Moments (Debye-Ang^2)
       XXX     -21.1219    XXY      -4.8846    XYY      -9.8586
       YYY     -27.5347    XXZ      -0.0330    XYZ      -0.0061
       YYZ       0.0845    XZZ     -25.2561    YZZ       4.4215
       ZZZ       0.1329
    Hexadecapole Moments (Debye-Ang^3)
      XXXX   -2350.3926   XXXY     -34.2718   XXYY    -659.6140
      XYYY     -19.5947   YYYY   -1486.9261   XXXZ      -0.4740
      XXYZ       0.0761   XYYZ       0.1387   YYYZ      -0.0657
      XXZZ    -436.9315   XYZZ     -35.3328   YYZZ    -301.7588
      XZZZ      -0.0821   YZZZ       0.3294   ZZZZ     -85.0562
 -----------------------------------------------------------------
 Total job time:  58.66s(wall), 54.96s(cpu) 
 Fri Aug 12 13:12:41 2022

        *************************************************************
        *                                                           *
        *  Thank you very much for using Q-Chem.  Have a nice day.  *
        *                                                           *
        *************************************************************


