48
 energy: -77.727812763638 gnorm: 0.000041549923 xtb: 6.4.1 (23d549d)
F         6.79302042190000   -3.25894884740000   -0.08943213850000
C         5.58564048610000   -2.71827366730000    0.08521503440000
F         4.83172627740000   -3.56898454280000    0.77506623620000
C         5.25466735080000   -1.52190688820000   -0.38012274910000
C         3.98912229480000   -0.82290534990000   -0.26335418840000
C         3.87056207820000    0.43785934870000   -0.85667150830000
C         2.69842746800000    1.15535224270000   -0.78723954130000
C         1.58975286430000    0.63703571980000   -0.11229440120000
N         0.40153850890000    1.35621788220000   -0.03743826070000
C        -0.83041161160000    0.68854054250000   -0.02724208080000
C        -1.87588115830000    1.14608604740000    0.77388523370000
C        -3.09179631630000    0.49565174740000    0.77273420720000
C        -3.30147477220000   -0.63615781790000   -0.01349956630000
C        -4.59541172790000   -1.33118349690000   -0.00608073160000
C        -5.78888527790000   -0.61243255540000    0.01549815650000
C        -7.00588798840000   -1.26776056060000    0.01920857830000
C        -7.05228462710000   -2.65176625610000    0.00624478620000
C        -5.87249615080000   -3.37670197710000   -0.01256614230000
C        -4.65454185870000   -2.72323754350000   -0.02102739610000
C        -2.25016746430000   -1.09045343200000   -0.80830739150000
C        -1.03583275590000   -0.43746921990000   -0.82376929670000
C         0.42297868940000    2.75660989180000    0.02892866550000
C         1.39398317350000    3.41502745390000    0.78221434620000
C         1.40727554940000    4.79495749930000    0.84450662370000
C         0.45290346220000    5.53717932860000    0.16821928430000
C        -0.51758767300000    4.88691219870000   -0.57622712660000
C        -0.53448780990000    3.50764755090000   -0.65132566120000
C         1.70323270220000   -0.62140993600000    0.48527874920000
C         2.87722545040000   -1.33677821490000    0.41014101880000
H         6.03982836350000   -1.00935881290000   -0.91750327510000
H         4.71338292690000    0.85372283590000   -1.38933316620000
H         2.62697911310000    2.12214052220000   -1.26307256870000
H        -1.72417502270000    2.01267161580000    1.40079407330000
H        -3.88363005730000    0.85242606370000    1.41473942130000
H        -5.76008863960000    0.46761152760000    0.00783052860000
H        -7.92306257210000   -0.69670378960000    0.03001260600000
H        -8.00354954710000   -3.16307189300000    0.01096116960000
H        -5.90225205250000   -4.45671815900000   -0.01840058100000
H        -3.73784167910000   -3.29498797010000   -0.01792943050000
H        -2.39733093120000   -1.94949661370000   -1.44612542400000
H        -0.23741087830000   -0.79143025570000   -1.45958774390000
H         2.13148070650000    2.83729682260000    1.32002675810000
H         2.16314466060000    5.29352879710000    1.43317060920000
H         0.46484332780000    6.61509892100000    0.22196076710000
H        -1.26309657280000    5.45793648460000   -1.10967983990000
H        -1.28677422780000    3.00186734020000   -1.23874786490000
H         0.85926191970000   -1.03078520250000    1.02023718530000
H         2.92926574540000   -2.30005343570000    0.89011695510000
