
Running Job 1 of 1 fragments/C105/conf-3/spe_input.inp
qchem fragments/C105/conf-3/spe_input.inp_160569.0 /gpfs/fs0/scratch/a/aspuru/rhickman/descriptor_computation/qchem160569/ 0
/scinet/niagara/software/commercial/qc52/exe/qcprog.exe_s fragments/C105/conf-3/spe_input.inp_160569.0 /gpfs/fs0/scratch/a/aspuru/rhickman/descriptor_computation/qchem160569/
                  Welcome to Q-Chem
     A Quantum Leap Into The Future Of Chemistry


 Q-Chem 5.2, Q-Chem, Inc., Pleasanton, CA (2019)

 License issued to: SRG Alan Aspuru-Guzik, University of Toronto

 Yihan Shao,  Zhengting Gan,  E. Epifanovsky,  A. T. B. Gilbert,  M. Wormit,  
 J. Kussmann,  A. W. Lange,  A. Behn,  Jia Deng,  Xintian Feng,  D. Ghosh,  
 M. Goldey,  P. R. Horn,  L. D. Jacobson,  I. Kaliman,  T. Kus,  A. Landau,  
 Jie Liu,  E. I. Proynov,  R. M. Richard,  R. P. Steele,  E. J. Sundstrom,  
 H. L. Woodcock III,  P. M. Zimmerman,  D. Zuev,  B. Albrecht,  E. Alguire,  
 S. A. Baeppler,  D. Barton,  Z. Benda,  Y. A. Bernard,  E. J. Berquist,  
 K. B. Bravaya,  H. Burton,  D. Casanova,  Chun-Min Chang,  Yunqing Chen,  
 A. Chien,  K. D. Closser,  M. P. Coons,  S. Coriani,  S. Dasgupta,  
 A. L. Dempwolff,  M. Diedenhofen,  Hainam Do,  R. G. Edgar,  Po-Tung Fang,  
 S. Faraji,  S. Fatehi,  Qingguo Feng,  K. D. Fenk,  J. Fosso-Tande,  
 J. Gayvert,  Qinghui Ge,  A. Ghysels,  G. Gidofalvi,  J. Gomes,  
 J. Gonthier,  A. Gunina,  D. Hait,  M. W. D. Hanson-Heine,  
 P. H. P. Harbach,  A. W. Hauser,  M. F. Herbst,  J. E. Herr,  
 E. G. Hohenstein,  Z. C. Holden,  Kerwin Hui,  B. C. Huynh,  T.-C. Jagau,  
 Hyunjun Ji,  B. Kaduk,  K. Khistyaev,  Jaehoon Kim,  P. Klunzinger,  K. Koh,  
 D. Kosenkov,  L. Koulias,  T. Kowalczyk,  C. M. Krauter,  A. Kunitsa,  
 Ka Un Lao,  A. Laurent,  K. V. Lawler,  Joonho Lee,  D. Lefrancois,  
 S. Lehtola,  D. S. Levine,  Yi-Pei Li,  You-Sheng Lin,  Fenglai Liu,  
 E. Livshits,  A. Luenser,  P. Manohar,  E. Mansoor,  S. F. Manzer,  
 Shan-Ping Mao,  Yuezhi Mao,  N. Mardirossian,  A. V. Marenich,  
 T. Markovich,  L. A. Martinez-Martinez,  S. A. Maurer,  N. J. Mayhall,  
 S. C. McKenzie,  J.-M. Mewes,  P. Morgante,  A. F. Morrison,  
 J. W. Mullinax,  K. Nanda,  T. S. Nguyen-Beck,  R. Olivares-Amaya,  
 J. A. Parkhill,  Zheng Pei,  T. M. Perrine,  F. Plasser,  P. Pokhilko,  
 S. Prager,  A. Prociuk,  E. Ramos,  D. R. Rehn,  F. Rob,  M. Scheurer,  
 M. Schneider,  N. Sergueev,  S. M. Sharada,  S. Sharma,  D. W. Small,  
 T. Stauch,  T. Stein,  Yu-Chuan Su,  A. J. W. Thom,  A. Tkatchenko,  
 T. Tsuchimochi,  N. M. Tubman,  L. Vogt,  M. L. Vidal,  O. Vydrov,  
 M. A. Watson,  J. Wenzel,  M. de Wergifosse,  T. A. Wesolowski,  A. White,  
 J. Witte,  A. Yamada,  Jun Yang,  K. Yao,  S. Yeganeh,  S. R. Yost,  
 Zhi-Qiang You,  A. Zech,  Igor Ying Zhang,  Xing Zhang,  Yan Zhao,  
 Ying Zhu,  B. R. Brooks,  G. K. L. Chan,  C. J. Cramer,  M. S. Gordon,  
 W. J. Hehre,  A. Klamt,  M. W. Schmidt,  C. D. Sherrill,  D. G. Truhlar,  
 A. Aspuru-Guzik,  R. Baer,  A. T. Bell,  N. A. Besley,  Jeng-Da Chai,  
 A. E. DePrince, III,  R. A. DiStasio Jr.,  A. Dreuw,  B. D. Dunietz,  
 T. R. Furlani,  Chao-Ping Hsu,  Yousung Jung,  Jing Kong,  D. S. Lambrecht,  
 WanZhen Liang,  C. Ochsenfeld,  V. A. Rassolov,  L. V. Slipchenko,  
 J. E. Subotnik,  T. Van Voorhis,  J. M. Herbert,  A. I. Krylov,  
 P. M. W. Gill,  M. Head-Gordon

 Contributors to earlier versions of Q-Chem not listed above: 
 R. D. Adamson,  B. Austin,  J. Baker,  G. J. O. Beran,  K. Brandhorst,  
 S. T. Brown,  E. F. C. Byrd,  A. K. Chakraborty,  C.-L. Cheng,  
 Siu Hung Chien,  D. M. Chipman,  D. L. Crittenden,  H. Dachsel,  
 R. J. Doerksen,  A. D. Dutoi,  L. Fusti-Molnar,  W. A. Goddard III,  
 A. Golubeva-Zadorozhnaya,  S. R. Gwaltney,  G. Hawkins,  A. Heyden,  
 S. Hirata,  G. Kedziora,  F. J. Keil,  C. Kelley,  Jihan Kim,  R. A. King,  
 R. Z. Khaliullin,  P. P. Korambath,  W. Kurlancheek,  A. M. Lee,  M. S. Lee,  
 S. V. Levchenko,  Ching Yeh Lin,  D. Liotard,  R. C. Lochan,  I. Lotan,  
 P. E. Maslen,  N. Nair,  D. P. O'Neill,  D. Neuhauser,  E. Neuscamman,  
 C. M. Oana,  R. Olson,  B. Peters,  R. Peverati,  P. A. Pieniazek,  
 Y. M. Rhee,  J. Ritchie,  M. A. Rohrdanz,  E. Rosta,  N. J. Russ,  
 H. F. Schaefer III,  N. E. Schultz,  N. Shenvi,  A. C. Simmonett,  A. Sodt,  
 D. Stuck,  K. S. Thanthiriwatte,  V. Vanovschi,  Tao Wang,  A. Warshel,  
 C. F. Williams,  Q. Wu,  X. Xu,  W. Zhang

 Please cite Q-Chem as follows:
 Y. Shao et al., Mol. Phys. 113, 184-215 (2015)
 DOI: 10.1080/00268976.2014.952696

 Q-Chem 5.2.1 for Intel X86 EM64T Linux

 Parts of Q-Chem use Armadillo 8.300.2 (Tropical Shenanigans).
 http://arma.sourceforge.net/

 Q-Chem begins on Mon Feb  7 18:09:15 2022  

Host: 
0

     Scratch files written to /gpfs/fs0/scratch/a/aspuru/rhickman/descriptor_computation/qchem160569//
 Jul1719 |scratch|qcdevops|jenkins|workspace|build_RNUM -1
Processing $rem in /scinet/niagara/software/commercial/qc52/config/preferences:
	 MEM_TOTAL  4000 
NAlpha2: 94
NElect   94
Mult     1

Checking the input file for inconsistencies... 	...done.

--------------------------------------------------------------
User input:
--------------------------------------------------------------
$molecule
0 1
C        -2.89723038950000   -1.52846273280000    0.71669696420000
C        -2.59669747970000   -0.36772621130000    0.14894309420000
C        -1.27028196330000    0.22977188350000    0.02702905630000
C        -1.19179661030000    1.61464162960000   -0.10023529300000
C         0.01654725390000    2.27678949240000   -0.24247250300000
C         0.06884744970000    3.76837561320000   -0.38392568110000
C         1.17733347020000    1.52322483130000   -0.21870903270000
C         1.15373273120000    0.13830836140000   -0.06615219040000
C         2.44664338590000   -0.53564098320000    0.08826669210000
C         2.69711930360000   -1.47510545110000    0.98932501010000
C        -0.08073092350000   -0.52309791980000    0.00605687060000
O        -0.19684270210000   -1.88978895800000    0.01886387250000
C         0.57410599050000   -2.63916630550000   -0.89493893010000
H        -3.91665291990000   -1.87483807190000    0.76635054710000
H        -2.14802288080000   -2.16423631180000    1.15111528210000
H        -3.39620600060000    0.25021159400000   -0.24414883640000
H        -2.10999316260000    2.18549042510000   -0.09708566740000
H        -0.83960526030000    4.14528691280000   -0.84774575350000
H         0.92415345650000    4.07087609670000   -0.98375137250000
H         0.16468159260000    4.23291172280000    0.59801651830000
H         2.13652942880000    2.01662259140000   -0.29430243260000
H         3.24883696650000   -0.15280383540000   -0.53175102970000
H         1.93141288980000   -1.83860737470000    1.65471010750000
H         3.67917050480000   -1.90213686020000    1.10559148180000
H        -0.08869493400000   -3.40068813580000   -1.31229032370000
H         1.41373078940000   -3.12946019710000   -0.39310932460000
H         0.96234718780000   -2.01671970810000   -1.70384252630000
$end

$rem
BASIS = 6-31G*
GUI = 2
METHOD = B3LYP
PRINT_ORBITALS false
MOLDEN_FORMAT false
--------------------------------------------------------------
 ----------------------------------------------------------------
             Standard Nuclear Orientation (Angstroms)
    I     Atom           X                Y                Z
 ----------------------------------------------------------------
    1      C       1.1580825450    -3.1090724774     0.5579597497
    2      C       0.0144058887    -2.6364458752     0.0798367951
    3      C      -0.4002908863    -1.2377671649     0.0253429581
    4      C      -1.7663142763    -0.9667119538    -0.0016672146
    5      C      -2.2626358728     0.3244872797    -0.0740241268
    6      C      -3.7386899083     0.5846370080    -0.1080839402
    7      C      -1.3555444670     1.3699368330    -0.0823580278
    8      C       0.0198511281     1.1525071446    -0.0291086036
    9      C       0.8754660426     2.3360075250     0.1009715214
   10      C       1.8995369219     2.4298941711     0.9374533778
   11      C       0.5070669687    -0.1624792831    -0.0270225222
   12      O       1.8421464872    -0.4650734605    -0.1135661611
   13      C       2.6274338711     0.2213763191    -1.0638683669
   14      H       1.3623291341    -4.1673310663     0.5639379658
   15      H       1.9195913423    -2.4665916968     0.9599075175
   16      H      -0.7336512756    -3.3323419373    -0.2830976645
   17      H      -2.4574179655    -1.7977514967     0.0250188280
   18      H      -4.2685139419    -0.2501634110    -0.5607121182
   19      H      -3.9596724645     1.4898909250    -0.6689117421
   20      H      -4.1177447088     0.7154974590     0.9060075072
   21      H      -1.7151619012     2.3894372259    -0.1048713296
   22      H       0.5663754903     3.2002481676    -0.4752679601
   23      H       2.1976612796     1.6031522766     1.5609892594
   24      H       2.4655031621     3.3404998077     1.0412698895
   25      H       3.2596109811    -0.5274850897    -1.5465291600
   26      H       3.2623172633     0.9714184755    -0.5826712159
   27      H       2.0113939738     0.7138908867    -1.8191300880
 ----------------------------------------------------------------
 Molecular Point Group                 C1    NOp =  1
 Largest Abelian Subgroup              C1    NOp =  1
 Nuclear Repulsion Energy =         767.80659736 hartrees
 There are       47 alpha and       47 beta electrons
 Requested basis set is 6-31G(d)
 There are 80 shells and 223 basis functions

 Total QAlloc Memory Limit   4000 MB
 Mega-Array Size       188 MB
 MEM_STATIC part       192 MB
 A cutoff of  1.0D-08 yielded   2245 shell pairs
 There are     19410 function pairs
 Smallest overlap matrix eigenvalue = 3.05E-04

 Scale SEOQF with 1.000000e-01/1.000000e-01/1.000000e-01

 Standard Electronic Orientation quadrupole field applied
 Nucleus-field energy     =     0.0000000296 hartrees
 Guess from superposition of atomic densities
 Warning:  Energy on first SCF cycle will be non-variational
 SAD guess density has 94.000000 electrons

 -----------------------------------------------------------------------
  General SCF calculation program by
  Eric Jon Sundstrom, Paul Horn, Yuezhi Mao, Dmitri Zuev, Alec White,
  David Stuck, Shaama M.S., Shane Yost, Joonho Lee, David Small,
  Daniel Levine, Susi Lehtola, Hugh Burton, Evgeny Epifanovsky,
  Bang C. Huynh
 -----------------------------------------------------------------------
 Exchange:     0.2000 Hartree-Fock + 0.0800 Slater + 0.7200 B88
 Correlation:  0.1900 VWN1RPA + 0.8100 LYP
 Using SG-1 standard quadrature grid
 A restricted SCF calculation will be
 performed using DIIS
 SCF converges when DIIS error is below 1.0e-05
 ---------------------------------------
  Cycle       Energy         DIIS error
 ---------------------------------------
    1    -543.7422444407      5.39e-02  
    2    -540.6622272588      5.55e-03  
    3    -540.6690791254      5.57e-03  
    4    -540.8613372530      1.11e-03  
    5    -540.8684420410      3.96e-04  
    6    -540.8694481622      1.16e-04  
    7    -540.8695183931      3.56e-05  
    8    -540.8695250279      9.43e-06  Convergence criterion met
 ---------------------------------------
 SCF time:   CPU 35.08s  wall 35.00s 
 SCF   energy in the final basis set =     -540.8695250279
 Total energy in the final basis set =     -540.8695250279
 
 --------------------------------------------------------------
 
                    Orbital Energies (a.u.)
 --------------------------------------------------------------
 
 Alpha MOs
 -- Occupied --
-19.1652 -10.2392 -10.2270 -10.1900 -10.1894 -10.1872 -10.1851 -10.1799
-10.1785 -10.1785 -10.1775 -10.1772 -10.1654  -1.0549  -0.8608  -0.8012
 -0.7859  -0.7451  -0.7182  -0.7101  -0.6585  -0.6161  -0.6128  -0.5550
 -0.5447  -0.5119  -0.4871  -0.4813  -0.4546  -0.4431  -0.4396  -0.4328
 -0.4241  -0.4192  -0.4108  -0.3851  -0.3742  -0.3654  -0.3606  -0.3497
 -0.3401  -0.3236  -0.2967  -0.2861  -0.2609  -0.2179  -0.2075
 -- Virtual --
 -0.0224  -0.0110   0.0430   0.0679   0.0996   0.1154   0.1259   0.1308
  0.1370   0.1497   0.1575   0.1609   0.1628   0.1668   0.1817   0.1964
  0.1979   0.2003   0.2163   0.2230   0.2569   0.2736   0.3126   0.3233
  0.3329   0.3408   0.3776   0.3887   0.3967   0.4042   0.4680   0.4909
  0.5063   0.5195   0.5228   0.5341   0.5503   0.5533   0.5587   0.5728
  0.5818   0.5864   0.5882   0.6046   0.6158   0.6260   0.6380   0.6438
  0.6593   0.6894   0.6944   0.7061   0.7134   0.7310   0.7450   0.7508
  0.7787   0.7835   0.8178   0.8410   0.8453   0.8532   0.8623   0.8668
  0.8737   0.8875   0.8977   0.9009   0.9139   0.9266   0.9333   0.9474
  0.9586   0.9658   0.9743   0.9909   0.9990   1.0265   1.0548   1.0673
  1.0795   1.1071   1.1356   1.1427   1.1639   1.1771   1.1964   1.2197
  1.2448   1.2602   1.2966   1.3174   1.3302   1.3550   1.4037   1.4398
  1.4562   1.4713   1.4984   1.5008   1.5181   1.5308   1.5546   1.5825
  1.6443   1.6807   1.6937   1.7543   1.7722   1.8013   1.8122   1.8219
  1.8461   1.8633   1.9042   1.9136   1.9211   1.9396   1.9655   1.9847
  2.0020   2.0113   2.0266   2.0816   2.0912   2.1240   2.1371   2.1551
  2.1663   2.2001   2.2391   2.2472   2.2555   2.2641   2.2923   2.2988
  2.3170   2.3415   2.3642   2.3715   2.3992   2.4051   2.4188   2.4301
  2.4549   2.4987   2.5703   2.6079   2.6426   2.6958   2.7039   2.7235
  2.7613   2.7850   2.8296   2.8538   2.9188   2.9503   2.9715   2.9903
  3.1300   3.2984   3.4739   4.0693   4.1254   4.1295   4.1508   4.1794
  4.2272   4.2626   4.2765   4.3248   4.4189   4.4964   4.5357   4.8649
 --------------------------------------------------------------
 
          Ground-State Mulliken Net Atomic Charges

     Atom                 Charge (a.u.)
  ----------------------------------------
      1 C                    -0.338502
      2 C                    -0.120774
      3 C                     0.147745
      4 C                    -0.272068
      5 C                     0.196897
      6 C                    -0.528993
      7 C                    -0.255625
      8 C                     0.142598
      9 C                    -0.145696
     10 C                    -0.335499
     11 C                     0.212675
     12 O                    -0.520549
     13 C                    -0.204324
     14 H                     0.131642
     15 H                     0.163635
     16 H                     0.122999
     17 H                     0.119107
     18 H                     0.155623
     19 H                     0.155334
     20 H                     0.165885
     21 H                     0.117917
     22 H                     0.133078
     23 H                     0.159201
     24 H                     0.140323
     25 H                     0.154413
     26 H                     0.153992
     27 H                     0.148968
  ----------------------------------------
  Sum of atomic charges =     0.000000

 -----------------------------------------------------------------
                    Cartesian Multipole Moments
 -----------------------------------------------------------------
    Charge (ESU x 10^10)
                 0.0000
    Dipole Moment (Debye)
         X      -0.0995      Y       1.0366      Z      -0.8675
       Tot       1.3554
    Quadrupole Moments (Debye-Ang)
        XX     -70.0556     XY       2.0518     YY     -72.9364
        XZ      -0.6139     YZ      -0.6006     ZZ     -78.6700
    Octopole Moments (Debye-Ang^2)
       XXX       9.0803    XXY       2.8448    XYY       2.1307
       YYY      -0.0161    XXZ      -2.3925    XYZ      -0.3259
       YYZ      -3.9305    XZZ       8.9350    YZZ       1.6906
       ZZZ      -3.3311
    Hexadecapole Moments (Debye-Ang^3)
      XXXX   -1708.7489   XXXY       8.5710   XXYY    -508.6335
      XYYY       3.3122   YYYY   -1364.9778   XXXZ     -10.8657
      XXYZ       5.6906   XYYZ      14.4003   YYYZ      -6.4937
      XXZZ    -319.2231   XYZZ      -0.9382   YYZZ    -293.0399
      XZZZ      -7.0136   YZZZ       0.9394   ZZZZ    -209.5236
 -----------------------------------------------------------------
Archival summary:
1\1\nia1977.scinet.local\SP\ProcedureUnspecified\6-31G*\11214\rhickman\MonFeb718:09:512022MonFeb718:09:512022\0\\#,ProcedureUnspecified,6-31G*,\\0,1\O\C,1,1.37167\C,2,1.40235,1,123.02\C,3,1.39349,2,119.294,1,173.166,0\H,4,1.0813,3,118.435,2,-178.697,0\C,4,1.38414,3,121.921,2,2.90345,0\C,6,1.3852,4,118.005,3,0.412507,0\H,7,1.08119,6,119.258,4,178.853,0\C,7,1.39292,6,122.262,4,-1.77888,0\C,1,1.41102,2,118.481,3,-44.7198,0\H,10,1.09201,1,111.793,2,-16.6409,0\H,10,1.09243,1,106.627,2,-136.005,0\H,10,1.09416,1,111.114,2,105.13,0\C,9,1.45988,7,117.758,6,-178.993,0\H,14,1.08424,9,113.981,7,22.4041,0\C,14,1.32664,9,126.846,7,-155.126,0\H,16,1.07436,14,122.198,9,-0.520332,0\H,16,1.07781,14,121.008,9,179.162,0\C,3,1.46618,2,123.644,1,-10.5458,0\H,19,1.08374,3,115.474,2,144.175,0\C,19,1.32561,3,124.331,2,-41.4358,0\H,21,1.07717,19,121.775,3,-176.312,0\H,21,1.07758,19,121.636,3,2.62504,0\C,6,1.49919,4,120.933,3,178.929,0\H,24,1.08742,6,110.852,4,152.913,0\H,24,1.08759,6,110.867,4,31.7286,0\H,24,1.0905,6,109.994,4,-87.6535,0\\\@

 Total job time:  35.37s(wall), 35.26s(cpu) 
 Mon Feb  7 18:09:51 2022

        *************************************************************
        *                                                           *
        *  Thank you very much for using Q-Chem.  Have a nice day.  *
        *                                                           *
        *************************************************************


