48
 energy: -77.727636828016 gnorm: 0.000059748387 xtb: 6.4.1 (23d549d)
F         6.79963581060000   -3.24093099220000    0.35709454120000
C         5.59535122220000   -2.71005036030000    0.13681613600000
F         4.86311586570000   -3.58107478720000   -0.55090607060000
C         5.24793020590000   -1.50365061240000    0.56258621320000
C         3.98375028790000   -0.81277501850000    0.39422424400000
C         2.89061669100000   -1.34906455890000   -0.29236767010000
C         1.71754103530000   -0.63935330250000   -0.41886324060000
C         1.58617308220000    0.63571389170000    0.13846931290000
N         0.40012929140000    1.35091677450000    0.01015607800000
C        -0.83179377850000    0.68296737010000   -0.01507345000000
C        -1.06029745420000   -0.42017755940000    0.80659381170000
C        -2.27767698460000   -1.06768400950000    0.78226652010000
C        -3.30434239870000   -0.63846800920000   -0.05709134090000
C        -4.60040290450000   -1.33034940000000   -0.07843914500000
C        -5.19025524860000   -1.77176626310000    1.10414781580000
C        -6.41101684870000   -2.41977212040000    1.08344582110000
C        -7.06141050960000   -2.64271971590000   -0.11864785730000
C        -6.48349648420000   -2.21073568950000   -1.30066535110000
C        -5.26520399210000   -1.55803148640000   -1.28154052310000
C        -3.06920594630000    0.46582404650000   -0.87435402820000
C        -1.85455365330000    1.11866020710000   -0.85658559410000
C         0.42403283350000    2.74904855600000   -0.09479576940000
C         1.41542788710000    3.38613708660000   -0.83983006850000
C         1.43194754960000    4.76381881790000   -0.93971664390000
C         0.46061620120000    5.52474485010000   -0.30997344070000
C        -0.53029940720000    4.89556710860000    0.42563966670000
C        -0.55058331410000    3.51891273290000    0.53843232210000
C         2.67556097080000    1.17574374850000    0.82774774560000
C         3.84691371820000    0.46386261110000    0.94835535930000
H         6.01695328010000   -0.97414015030000    1.10690322420000
H         2.95681288000000   -2.32587849700000   -0.74230277380000
H         0.88861532320000   -1.06679310620000   -0.96314781090000
H        -0.27658856540000   -0.76342236340000    1.46614010110000
H        -2.43173301370000   -1.92885776410000    1.41554115510000
H        -4.69650398960000   -1.58583633870000    2.04701076430000
H        -6.85875243830000   -2.75091920880000    2.00933451630000
H        -8.01422029800000   -3.15091217430000   -0.13421904680000
H        -6.98408396190000   -2.38558467120000   -2.24205833040000
H        -4.81172346620000   -1.23915142010000   -2.20889782190000
H        -3.85433696890000    0.82600318640000   -1.52264515790000
H        -1.68828059060000    1.97308735520000   -1.49635787800000
H         2.16655359080000    2.79356928380000   -1.34142104240000
H         2.20395494670000    5.24568192490000   -1.52131868510000
H         0.47516634210000    6.60076699960000   -0.39305648270000
H        -1.28954029700000    5.48121247980000    0.92258981590000
H        -1.31932047490000    3.02996649470000    1.11875392650000
H         2.58977149510000    2.15551239580000    1.27372322360000
H         4.67462790310000    0.89722958690000    1.49068188670000
