
Running Job 1 of 1 fragments/C058/conf-6/spe_input.inp
qchem fragments/C058/conf-6/spe_input.inp_264730.0 /gpfs/fs0/scratch/a/aspuru/rhickman/descriptor_computation/qchem264730/ 0
/scinet/niagara/software/commercial/qc52/exe/qcprog.exe_s fragments/C058/conf-6/spe_input.inp_264730.0 /gpfs/fs0/scratch/a/aspuru/rhickman/descriptor_computation/qchem264730/
                  Welcome to Q-Chem
     A Quantum Leap Into The Future Of Chemistry


 Q-Chem 5.2, Q-Chem, Inc., Pleasanton, CA (2019)

 License issued to: SRG Alan Aspuru-Guzik, University of Toronto

 Yihan Shao,  Zhengting Gan,  E. Epifanovsky,  A. T. B. Gilbert,  M. Wormit,  
 J. Kussmann,  A. W. Lange,  A. Behn,  Jia Deng,  Xintian Feng,  D. Ghosh,  
 M. Goldey,  P. R. Horn,  L. D. Jacobson,  I. Kaliman,  T. Kus,  A. Landau,  
 Jie Liu,  E. I. Proynov,  R. M. Richard,  R. P. Steele,  E. J. Sundstrom,  
 H. L. Woodcock III,  P. M. Zimmerman,  D. Zuev,  B. Albrecht,  E. Alguire,  
 S. A. Baeppler,  D. Barton,  Z. Benda,  Y. A. Bernard,  E. J. Berquist,  
 K. B. Bravaya,  H. Burton,  D. Casanova,  Chun-Min Chang,  Yunqing Chen,  
 A. Chien,  K. D. Closser,  M. P. Coons,  S. Coriani,  S. Dasgupta,  
 A. L. Dempwolff,  M. Diedenhofen,  Hainam Do,  R. G. Edgar,  Po-Tung Fang,  
 S. Faraji,  S. Fatehi,  Qingguo Feng,  K. D. Fenk,  J. Fosso-Tande,  
 J. Gayvert,  Qinghui Ge,  A. Ghysels,  G. Gidofalvi,  J. Gomes,  
 J. Gonthier,  A. Gunina,  D. Hait,  M. W. D. Hanson-Heine,  
 P. H. P. Harbach,  A. W. Hauser,  M. F. Herbst,  J. E. Herr,  
 E. G. Hohenstein,  Z. C. Holden,  Kerwin Hui,  B. C. Huynh,  T.-C. Jagau,  
 Hyunjun Ji,  B. Kaduk,  K. Khistyaev,  Jaehoon Kim,  P. Klunzinger,  K. Koh,  
 D. Kosenkov,  L. Koulias,  T. Kowalczyk,  C. M. Krauter,  A. Kunitsa,  
 Ka Un Lao,  A. Laurent,  K. V. Lawler,  Joonho Lee,  D. Lefrancois,  
 S. Lehtola,  D. S. Levine,  Yi-Pei Li,  You-Sheng Lin,  Fenglai Liu,  
 E. Livshits,  A. Luenser,  P. Manohar,  E. Mansoor,  S. F. Manzer,  
 Shan-Ping Mao,  Yuezhi Mao,  N. Mardirossian,  A. V. Marenich,  
 T. Markovich,  L. A. Martinez-Martinez,  S. A. Maurer,  N. J. Mayhall,  
 S. C. McKenzie,  J.-M. Mewes,  P. Morgante,  A. F. Morrison,  
 J. W. Mullinax,  K. Nanda,  T. S. Nguyen-Beck,  R. Olivares-Amaya,  
 J. A. Parkhill,  Zheng Pei,  T. M. Perrine,  F. Plasser,  P. Pokhilko,  
 S. Prager,  A. Prociuk,  E. Ramos,  D. R. Rehn,  F. Rob,  M. Scheurer,  
 M. Schneider,  N. Sergueev,  S. M. Sharada,  S. Sharma,  D. W. Small,  
 T. Stauch,  T. Stein,  Yu-Chuan Su,  A. J. W. Thom,  A. Tkatchenko,  
 T. Tsuchimochi,  N. M. Tubman,  L. Vogt,  M. L. Vidal,  O. Vydrov,  
 M. A. Watson,  J. Wenzel,  M. de Wergifosse,  T. A. Wesolowski,  A. White,  
 J. Witte,  A. Yamada,  Jun Yang,  K. Yao,  S. Yeganeh,  S. R. Yost,  
 Zhi-Qiang You,  A. Zech,  Igor Ying Zhang,  Xing Zhang,  Yan Zhao,  
 Ying Zhu,  B. R. Brooks,  G. K. L. Chan,  C. J. Cramer,  M. S. Gordon,  
 W. J. Hehre,  A. Klamt,  M. W. Schmidt,  C. D. Sherrill,  D. G. Truhlar,  
 A. Aspuru-Guzik,  R. Baer,  A. T. Bell,  N. A. Besley,  Jeng-Da Chai,  
 A. E. DePrince, III,  R. A. DiStasio Jr.,  A. Dreuw,  B. D. Dunietz,  
 T. R. Furlani,  Chao-Ping Hsu,  Yousung Jung,  Jing Kong,  D. S. Lambrecht,  
 WanZhen Liang,  C. Ochsenfeld,  V. A. Rassolov,  L. V. Slipchenko,  
 J. E. Subotnik,  T. Van Voorhis,  J. M. Herbert,  A. I. Krylov,  
 P. M. W. Gill,  M. Head-Gordon

 Contributors to earlier versions of Q-Chem not listed above: 
 R. D. Adamson,  B. Austin,  J. Baker,  G. J. O. Beran,  K. Brandhorst,  
 S. T. Brown,  E. F. C. Byrd,  A. K. Chakraborty,  C.-L. Cheng,  
 Siu Hung Chien,  D. M. Chipman,  D. L. Crittenden,  H. Dachsel,  
 R. J. Doerksen,  A. D. Dutoi,  L. Fusti-Molnar,  W. A. Goddard III,  
 A. Golubeva-Zadorozhnaya,  S. R. Gwaltney,  G. Hawkins,  A. Heyden,  
 S. Hirata,  G. Kedziora,  F. J. Keil,  C. Kelley,  Jihan Kim,  R. A. King,  
 R. Z. Khaliullin,  P. P. Korambath,  W. Kurlancheek,  A. M. Lee,  M. S. Lee,  
 S. V. Levchenko,  Ching Yeh Lin,  D. Liotard,  R. C. Lochan,  I. Lotan,  
 P. E. Maslen,  N. Nair,  D. P. O'Neill,  D. Neuhauser,  E. Neuscamman,  
 C. M. Oana,  R. Olson,  B. Peters,  R. Peverati,  P. A. Pieniazek,  
 Y. M. Rhee,  J. Ritchie,  M. A. Rohrdanz,  E. Rosta,  N. J. Russ,  
 H. F. Schaefer III,  N. E. Schultz,  N. Shenvi,  A. C. Simmonett,  A. Sodt,  
 D. Stuck,  K. S. Thanthiriwatte,  V. Vanovschi,  Tao Wang,  A. Warshel,  
 C. F. Williams,  Q. Wu,  X. Xu,  W. Zhang

 Please cite Q-Chem as follows:
 Y. Shao et al., Mol. Phys. 113, 184-215 (2015)
 DOI: 10.1080/00268976.2014.952696

 Q-Chem 5.2.1 for Intel X86 EM64T Linux

 Parts of Q-Chem use Armadillo 8.300.2 (Tropical Shenanigans).
 http://arma.sourceforge.net/

 Q-Chem begins on Mon Feb  7 09:28:18 2022  

Host: 
0

     Scratch files written to /gpfs/fs0/scratch/a/aspuru/rhickman/descriptor_computation/qchem264730//
 Jul1719 |scratch|qcdevops|jenkins|workspace|build_RNUM -1
Processing $rem in /scinet/niagara/software/commercial/qc52/config/preferences:
	 MEM_TOTAL  4000 
NAlpha2: 166
NElect   166
Mult     1

Checking the input file for inconsistencies... 	...done.

--------------------------------------------------------------
User input:
--------------------------------------------------------------
$molecule
0 1
C         0.70456430660000   -3.38906119850000    2.60370691620000
C         1.37888566060000   -2.31983087660000    2.20159128330000
C         0.82842150670000   -1.25116972730000    1.36832325200000
C        -0.15879092460000   -1.54029773380000    0.43129076000000
C        -0.72005394030000   -0.58251690610000   -0.40041845630000
C        -1.82647533310000   -0.99872319220000   -1.33098171150000
C        -3.06166985560000   -1.48337232020000   -0.55965862040000
C        -3.63515130450000   -0.43363312890000    0.39235981650000
C        -4.12754101580000    0.84992585860000   -0.27933665630000
C        -5.21433430090000    0.65325943450000   -1.33722185720000
C        -6.49120369650000    0.03377833650000   -0.78123223270000
C        -0.27410329280000    0.73689615390000   -0.28282665200000
C        -0.72672575630000    1.84418865260000   -1.13445615680000
C        -0.71276125500000    1.83730735580000   -2.45892662350000
C         0.68394764480000    1.03728221020000    0.68301251380000
C         1.26779724290000    0.07579272730000    1.48913849170000
C         2.34548409410000    0.48623464650000    2.45326301430000
C         3.76671029430000    0.26904115430000    1.90547302300000
C         4.04036363410000    1.01052924180000    0.59260538160000
C         3.70931406180000    0.16978759160000   -0.64203119970000
C         3.62219490930000    0.99472015630000   -1.92553758800000
C         4.94270428180000    1.65171930070000   -2.31012661540000
H         1.16257397380000   -4.14814322470000    3.21503364710000
H        -0.33233819130000   -3.54317139410000    2.35572429300000
H         2.40784819080000   -2.20422638960000    2.51221424600000
H        -0.48131505310000   -2.56588685100000    0.32610873990000
H        -1.47310088860000   -1.81555364580000   -1.96696868520000
H        -2.11289734890000   -0.17135485320000   -1.97660888160000
H        -2.79602096480000   -2.36400416820000    0.02955130970000
H        -3.82483124170000   -1.79122523870000   -1.27662223870000
H        -2.86229540740000   -0.16222318400000    1.11630955370000
H        -4.45788218930000   -0.88547095130000    0.95044087190000
H        -3.28007517040000    1.36004879050000   -0.74072735860000
H        -4.51698703030000    1.50926706350000    0.50110380960000
H        -4.83284686560000    0.03310242460000   -2.15017664730000
H        -5.45308498090000    1.63158946550000   -1.76252532970000
H        -6.31691292240000   -0.98445702870000   -0.44329000260000
H        -7.26369662330000    0.00816777030000   -1.54689978510000
H        -6.86161149210000    0.61680274680000    0.05947478510000
H        -1.01571003860000    2.74483718730000   -0.60416403690000
H        -0.37747599830000    0.98057006130000   -3.01985335060000
H        -1.01860703830000    2.69548006290000   -3.03399496300000
H         1.00110074130000    2.06678214900000    0.78191799020000
H         2.24026175110000   -0.06513750320000    3.39019441250000
H         2.22764193160000    1.54838719020000    2.68114362310000
H         3.95096394150000   -0.79583087910000    1.75241627610000
H         4.46616044390000    0.61581218870000    2.67041244200000
H         5.09524988320000    1.28945993570000    0.55755200580000
H         3.45733925820000    1.93292154180000    0.56933431340000
H         2.75089305450000   -0.32891554480000   -0.49286098080000
H         4.47040618250000   -0.60566416660000   -0.76162914360000
H         2.85297338170000    1.76134836930000   -1.80478107710000
H         3.30285426170000    0.33769893910000   -2.73823215330000
H         5.24421694990000    2.38479464300000   -1.56650749910000
H         4.84837190040000    2.15928177840000   -3.26769420880000
H         5.72830985170000    0.90367422140000   -2.39514506120000
$end

$rem
BASIS = 6-31G*
GUI = 2
METHOD = B3LYP
PRINT_ORBITALS false
MOLDEN_FORMAT false
--------------------------------------------------------------
 ----------------------------------------------------------------
             Standard Nuclear Orientation (Angstroms)
    I     Atom           X                Y                Z
 ----------------------------------------------------------------
    1      C      -0.8031085692    -4.1782198962     0.9417700386
    2      C      -1.4902283073    -3.1433516595     0.4763949749
    3      C      -0.9143556085    -1.8396989128     0.1473916320
    4      C       0.1860623894    -1.3680646001     0.8565140366
    5      C       0.7789866376    -0.1387849025     0.6086980406
    6      C       2.0044136084     0.2392178795     1.3953279275
    7      C       3.1726395251    -0.7161132695     1.1158280170
    8      C       3.5742243462    -0.7713596750    -0.3582309751
    9      C       4.0619224401     0.5540855331    -0.9468675553
   10      C       5.2691220974     1.1728924779    -0.2407051254
   11      C       6.5105207699     0.2895330258    -0.2840890058
   12      C       0.2460300850     0.6580678698    -0.4084222118
   13      C       0.7246062661     2.0053450069    -0.7431545529
   14      C       0.8582225680     2.9996279326     0.1217226201
   15      C      -0.8293171267     0.1707782710    -1.1480950429
   16      C      -1.4415905762    -1.0406245103    -0.8782691812
   17      C      -2.6418986508    -1.4490082914    -1.6856667455
   18      C      -3.9782886054    -1.1138800197    -1.0009173531
   19      C      -4.1475397166     0.3742052182    -0.6764661790
   20      C      -3.6326495142     0.7382966478     0.7174826507
   21      C      -3.4521459288     2.2425427406     0.9178679788
   22      C      -4.7580740580     3.0233182808     0.8270776952
   23      H      -1.2807948413    -5.1158237019     1.1707103773
   24      H       0.2621667008    -4.1396021503     1.0970420345
   25      H      -2.5523207350    -3.2547875272     0.3085955901
   26      H       0.5779376080    -1.9759829451     1.6588775496
   27      H       1.7724238192     0.1989942938     2.4635637253
   28      H       2.3116698665     1.2552615795     1.1572960516
   29      H       2.8953841327    -1.7255112182     1.4280704793
   30      H       4.0274446888    -0.4124052719     1.7227012615
   31      H       2.7111657994    -1.1037875909    -0.9410640930
   32      H       4.3550045498    -1.5256886692    -0.4759935888
   33      H       3.2424441946     1.2748909657    -0.9327226477
   34      H       4.3229066784     0.3805332530    -1.9943660884
   35      H       5.0173426770     1.3962799931     0.7974316732
   36      H       5.4957553298     2.1240533469    -0.7295250920
   37      H       6.3598806804    -0.6248918599     0.2838195921
   38      H       7.3634172163     0.8145930236     0.1407964779
   39      H       6.7504073264     0.0213865224    -1.3109578292
   40      H       0.8995298815     2.1831166001    -1.7984689232
   41      H       0.6381876589     2.8758453225     1.1692512796
   42      H       1.1751051172     3.9818110558    -0.1874818368
   43      H      -1.2153965787     0.7857466360    -1.9499647772
   44      H      -2.6091657481    -2.5214445133    -1.8899521851
   45      H      -2.6126667095    -0.9296360360    -2.6465945925
   46      H      -4.0815546017    -1.6884008496    -0.0786428973
   47      H      -4.7774996811    -1.4311256661    -1.6756245735
   48      H      -5.2065585695     0.6315579024    -0.7402214523
   49      H      -3.6207154009     0.9700266294    -1.4239416013
   50      H      -2.6690972833     0.2552254059     0.8840259586
   51      H      -4.3288962815     0.3546058476     1.4677573487
   52      H      -2.7474446349     2.6192044513     0.1725326499
   53      H      -3.0065121154     2.4096489696     1.9015416026
   54      H      -5.1828172992     2.9573277857    -0.1711793710
   55      H      -4.5879687047     4.0734927974     1.0543476148
   56      H      -5.4840891698     2.6326547357     1.5371901794
 ----------------------------------------------------------------
 Molecular Point Group                 C1    NOp =  1
 Largest Abelian Subgroup              C1    NOp =  1
 Nuclear Repulsion Energy =        1843.84249130 hartrees
 There are       83 alpha and       83 beta electrons
 Requested basis set is 6-31G(d)
 There are 156 shells and 398 basis functions

 Total QAlloc Memory Limit   4000 MB
 Mega-Array Size       188 MB
 MEM_STATIC part       192 MB
 A cutoff of  1.0D-08 yielded   6048 shell pairs
 There are     42863 function pairs
 Smallest overlap matrix eigenvalue = 2.89E-04

 Scale SEOQF with 1.000000e-02/1.000000e-01/1.000000e-01

 Standard Electronic Orientation quadrupole field applied
 Nucleus-field energy     =     0.0000000306 hartrees
 Guess from superposition of atomic densities
 Warning:  Energy on first SCF cycle will be non-variational
 SAD guess density has 166.000001 electrons

 -----------------------------------------------------------------------
  General SCF calculation program by
  Eric Jon Sundstrom, Paul Horn, Yuezhi Mao, Dmitri Zuev, Alec White,
  David Stuck, Shaama M.S., Shane Yost, Joonho Lee, David Small,
  Daniel Levine, Susi Lehtola, Hugh Burton, Evgeny Epifanovsky,
  Bang C. Huynh
 -----------------------------------------------------------------------
 Exchange:     0.2000 Hartree-Fock + 0.0800 Slater + 0.7200 B88
 Correlation:  0.1900 VWN1RPA + 0.8100 LYP
 Using SG-1 standard quadrature grid
 A restricted SCF calculation will be
 performed using DIIS
 SCF converges when DIIS error is below 1.0e-05
 ---------------------------------------
  Cycle       Energy         DIIS error
 ---------------------------------------
    1    -863.2777112863      3.97e-02  
    2    -858.3431654605      4.51e-03  
    3    -858.3007146200      4.79e-03  
    4    -858.7870704066      4.15e-04  
    5    -858.7899744691      1.68e-04  
    6    -858.7904883437      5.95e-05  
    7    -858.7905435575      2.92e-05  
    8    -858.7905612982      6.44e-06  Convergence criterion met
 ---------------------------------------
 SCF time:   CPU 144.08s  wall 145.00s 
 SCF   energy in the final basis set =     -858.7905612982
 Total energy in the final basis set =     -858.7905612982
 
 --------------------------------------------------------------
 
                    Orbital Energies (a.u.)
 --------------------------------------------------------------
 
 Alpha MOs
 -- Occupied --
-10.1897 -10.1881 -10.1875 -10.1868 -10.1857 -10.1853 -10.1805 -10.1797
-10.1778 -10.1774 -10.1771 -10.1766 -10.1737 -10.1721 -10.1696 -10.1687
-10.1660 -10.1652 -10.1645 -10.1640 -10.1620 -10.1616  -0.8697  -0.8199
 -0.8016  -0.8009  -0.7794  -0.7704  -0.7584  -0.7353  -0.7146  -0.7057
 -0.6848  -0.6543  -0.6362  -0.6291  -0.6076  -0.5856  -0.5824  -0.5634
 -0.5565  -0.5388  -0.5319  -0.4889  -0.4840  -0.4740  -0.4640  -0.4625
 -0.4597  -0.4426  -0.4397  -0.4339  -0.4260  -0.4210  -0.4169  -0.4156
 -0.4091  -0.4004  -0.3940  -0.3867  -0.3799  -0.3760  -0.3716  -0.3679
 -0.3578  -0.3544  -0.3509  -0.3472  -0.3393  -0.3358  -0.3311  -0.3254
 -0.3203  -0.3161  -0.3126  -0.3051  -0.3011  -0.3006  -0.2968  -0.2931
 -0.2622  -0.2325  -0.2128
 -- Virtual --
 -0.0313   0.0031   0.0187   0.0605   0.0866   0.0945   0.1012   0.1070
  0.1147   0.1223   0.1243   0.1296   0.1345   0.1370   0.1500   0.1521
  0.1551   0.1571   0.1623   0.1637   0.1671   0.1703   0.1760   0.1787
  0.1820   0.1844   0.1887   0.1914   0.1938   0.1969   0.2017   0.2061
  0.2120   0.2214   0.2234   0.2254   0.2261   0.2318   0.2352   0.2438
  0.2499   0.2513   0.2548   0.2617   0.2686   0.2737   0.2793   0.2850
  0.2863   0.3096   0.3190   0.3238   0.3306   0.3412   0.3519   0.3778
  0.3921   0.4035   0.4242   0.4894   0.4934   0.4996   0.5011   0.5101
  0.5134   0.5199   0.5266   0.5332   0.5361   0.5382   0.5479   0.5504
  0.5536   0.5648   0.5728   0.5789   0.5800   0.5879   0.5981   0.5989
  0.6074   0.6162   0.6202   0.6315   0.6374   0.6434   0.6498   0.6579
  0.6636   0.6721   0.6752   0.6820   0.6830   0.6957   0.6974   0.7008
  0.7059   0.7163   0.7210   0.7309   0.7389   0.7429   0.7537   0.7652
  0.7723   0.7787   0.8010   0.8032   0.8071   0.8227   0.8248   0.8351
  0.8480   0.8569   0.8596   0.8670   0.8701   0.8735   0.8799   0.8838
  0.8877   0.8915   0.8977   0.8992   0.9087   0.9094   0.9162   0.9238
  0.9270   0.9324   0.9373   0.9445   0.9468   0.9514   0.9596   0.9627
  0.9658   0.9714   0.9749   0.9760   0.9842   0.9945   0.9993   1.0054
  1.0102   1.0195   1.0232   1.0332   1.0343   1.0486   1.0529   1.0586
  1.0617   1.0845   1.1159   1.1239   1.1281   1.1400   1.1502   1.1575
  1.1770   1.1844   1.2088   1.2132   1.2392   1.2482   1.2707   1.2836
  1.2917   1.3223   1.3324   1.3732   1.3832   1.4011   1.4137   1.4446
  1.4511   1.4632   1.4834   1.4956   1.4996   1.5235   1.5302   1.5339
  1.5601   1.5671   1.5899   1.6063   1.6162   1.6198   1.6541   1.6637
  1.6738   1.6829   1.6917   1.7042   1.7155   1.7235   1.7572   1.7752
  1.7881   1.8021   1.8212   1.8273   1.8380   1.8424   1.8583   1.8755
  1.8822   1.9052   1.9147   1.9188   1.9324   1.9505   1.9569   1.9600
  1.9695   1.9743   1.9919   1.9957   2.0004   2.0134   2.0159   2.0288
  2.0364   2.0406   2.0466   2.0568   2.0666   2.0741   2.0895   2.1075
  2.1263   2.1537   2.1546   2.1670   2.1742   2.1938   2.2128   2.2295
  2.2436   2.2498   2.2553   2.2652   2.2882   2.3005   2.3034   2.3104
  2.3231   2.3357   2.3374   2.3445   2.3587   2.3674   2.3750   2.3883
  2.3951   2.4023   2.4204   2.4322   2.4425   2.4527   2.4599   2.4706
  2.4830   2.4860   2.4961   2.5198   2.5293   2.5787   2.6072   2.6184
  2.6265   2.6388   2.6737   2.6880   2.6933   2.7121   2.7240   2.7348
  2.7518   2.7647   2.7811   2.7861   2.8054   2.8210   2.8747   2.9157
  2.9606   3.0551   3.0903   3.2371   3.4736   4.1216   4.1293   4.1366
  4.1657   4.1710   4.1949   4.1997   4.2267   4.2597   4.2988   4.3261
  4.3660   4.3882   4.4453   4.4667   4.4792   4.5198   4.5339   4.5730
  4.5857   4.6029   4.8258
 --------------------------------------------------------------
 
          Ground-State Mulliken Net Atomic Charges

     Atom                 Charge (a.u.)
  ----------------------------------------
      1 C                    -0.339273
      2 C                    -0.132141
      3 C                     0.117333
      4 C                    -0.258333
      5 C                     0.131849
      6 C                    -0.356217
      7 C                    -0.261093
      8 C                    -0.262290
      9 C                    -0.264901
     10 C                    -0.252169
     11 C                    -0.443701
     12 C                     0.096451
     13 C                    -0.149945
     14 C                    -0.327368
     15 C                    -0.248791
     16 C                     0.120623
     17 C                    -0.356842
     18 C                    -0.264369
     19 C                    -0.257894
     20 C                    -0.258678
     21 C                    -0.254217
     22 C                    -0.443305
     23 H                     0.141326
     24 H                     0.143905
     25 H                     0.135715
     26 H                     0.125696
     27 H                     0.139619
     28 H                     0.155944
     29 H                     0.129486
     30 H                     0.133313
     31 H                     0.141257
     32 H                     0.128960
     33 H                     0.142102
     34 H                     0.122646
     35 H                     0.133440
     36 H                     0.128107
     37 H                     0.146800
     38 H                     0.140180
     39 H                     0.140924
     40 H                     0.141094
     41 H                     0.151485
     42 H                     0.142904
     43 H                     0.119762
     44 H                     0.144468
     45 H                     0.142215
     46 H                     0.141293
     47 H                     0.130940
     48 H                     0.133683
     49 H                     0.128335
     50 H                     0.154244
     51 H                     0.121443
     52 H                     0.135218
     53 H                     0.125833
     54 H                     0.145085
     55 H                     0.139298
     56 H                     0.138551
  ----------------------------------------
  Sum of atomic charges =     0.000000

 -----------------------------------------------------------------
                    Cartesian Multipole Moments
 -----------------------------------------------------------------
    Charge (ESU x 10^10)
                -0.0000
    Dipole Moment (Debye)
         X      -0.1335      Y       0.0497      Z      -0.1389
       Tot       0.1990
    Quadrupole Moments (Debye-Ang)
        XX    -138.7548     XY       3.3318     YY    -135.2935
        XZ       2.7525     YZ      -2.1556     ZZ    -136.5218
    Octopole Moments (Debye-Ang^2)
       XXX     -14.2016    XXY     -11.9423    XYY       4.0755
       YYY      -5.2749    XXZ      -3.1557    XYZ      -2.0566
       YYZ       6.5564    XZZ       1.4585    YZZ       6.6694
       ZZZ      -4.3933
    Hexadecapole Moments (Debye-Ang^3)
      XXXX   -9044.4751   XXXY      72.9527   XXYY   -1994.9217
      XYYY      59.5642   YYYY   -2871.2481   XXXZ      17.1149
      XXYZ      -3.7711   XYYZ       1.7016   YYYZ     -43.8156
      XXZZ   -1620.8849   XYZZ      -3.6825   YYZZ    -646.8779
      XZZZ       7.4922   YZZZ       3.2146   ZZZZ    -896.8304
 -----------------------------------------------------------------
Archival summary:
1\1\nia0231.scinet.local\SP\ProcedureUnspecified\6-31G*\2234\rhickman\MonFeb709:30:432022MonFeb709:30:432022\0\\#,ProcedureUnspecified,6-31G*,\\0,1\C\C,1,1.38712\H,2,1.08024,1,118.448\C,2,1.39148,1,123.187,3,178.05,0\C,1,1.39769,2,118.181,3,-178.402,0\C,5,1.39318,1,118.769,2,-1.65085,0\H,6,1.08178,5,118.047,1,-178.373,0\C,6,1.3839,5,122.966,1,3.41926,0\C,4,1.46266,2,119.922,1,-179.476,0\H,9,1.08102,4,116.345,2,149.564,0\C,9,1.32652,4,124.771,2,-31.2758,0\H,11,1.07689,9,121.604,4,179.787,0\H,11,1.07722,9,122.333,4,-1.29905,0\C,5,1.46841,1,124.381,2,176.98,0\H,14,1.08438,5,115.14,1,132.035,0\C,14,1.32456,5,124.943,1,-52.7912,0\H,16,1.07736,14,121.777,5,-177.361,0\H,16,1.07752,14,121.867,5,1.45432,0\C,8,1.50313,6,119.103,5,176.789,0\H,19,1.09221,8,110.078,6,141.563,0\H,19,1.0927,8,108.776,6,23.9673,0\C,1,1.50444,2,118.518,3,4.77718,0\H,22,1.08785,1,110.507,2,-175.354,0\H,22,1.09388,1,109.186,2,-56.7835,0\C,22,1.53477,1,111.616,2,63.098,0\H,25,1.09143,22,108.764,1,-178.882,0\H,25,1.09236,22,109.265,1,-62.075,0\C,25,1.52878,22,113.455,1,58.4776,0\H,28,1.09202,25,108.467,22,-175.77,0\H,28,1.09319,25,108.522,22,-59.5369,0\C,28,1.53008,25,115.047,22,61.6193,0\H,31,1.09147,28,109.134,25,-64.2123,0\H,31,1.09338,28,107.887,25,179.575,0\C,31,1.52935,28,115.117,25,58.2059,0\H,34,1.09134,31,109.873,28,-61.4878,0\H,34,1.09317,31,108.013,28,-178.07,0\C,34,1.52423,31,113.281,28,61.3119,0\H,37,1.08692,34,111.089,31,-65.8406,0\H,37,1.08796,34,110.345,31,174.287,0\H,37,1.08808,34,110.441,31,54.5278,0\C,19,1.53855,8,113.289,6,-96.3019,0\H,41,1.09148,19,110.096,8,-64.5146,0\H,41,1.09298,19,107.288,8,178.867,0\C,41,1.53242,19,113.684,8,57.805,0\H,44,1.09145,41,109.378,19,31.2668,0\H,44,1.0917,41,108.886,19,148.392,0\C,44,1.52996,41,112.757,19,-90.6536,0\H,47,1.09065,44,109.332,41,44.2398,0\H,47,1.09311,44,109.115,41,-73.1987,0\C,47,1.52823,44,113.17,41,164.859,0\H,50,1.0927,47,109.028,44,-58.7653,0\H,50,1.09276,47,108.465,44,-175.369,0\C,50,1.52424,47,113.278,44,63.5469,0\H,53,1.08687,50,111.004,47,-64.5878,0\H,53,1.08787,50,110.37,47,175.505,0\H,53,1.08811,50,110.419,47,55.75,0\\\@

 Total job time:  145.18s(wall), 144.53s(cpu) 
 Mon Feb  7 09:30:43 2022

        *************************************************************
        *                                                           *
        *  Thank you very much for using Q-Chem.  Have a nice day.  *
        *                                                           *
        *************************************************************


