27
 energy: -49.339276159911 gnorm: 0.000150166639 xtb: 6.5.0 (unknown)
C           -3.15073322600000        2.23305543930000        1.00566544480000
C           -3.04358345990000        1.19988652800000        0.18132653800000
C           -1.87460522530000        0.32678681990000        0.05855635060000
C           -2.09243951510000       -1.01271076060000       -0.26000199010000
C           -1.03272764030000       -1.89669154950000       -0.33794627180000
Cl          -1.33447346710000       -3.55475084470000       -0.71855436470000
C            0.26531061490000       -1.47760657740000       -0.11284297070000
C            0.51588147330000       -0.13713036210000        0.17550518880000
C            1.85226748450000        0.38411963350000        0.41614399220000
C            3.01536875750000       -0.22715560760000        0.25522904200000
F            3.23941182550000       -1.46353005670000       -0.17189303490000
F            4.18359259490000        0.35916667310000        0.50575184450000
C           -0.55900697120000        0.76774630270000        0.25718186490000
O           -0.28232367700000        2.08829850520000        0.53063876400000
C           -0.31222533480000        2.94130458340000       -0.60849620660000
C           -0.06534940890000        4.36496809270000       -0.14067990560000
H           -4.05686278850000        2.81251738360000        1.06098303600000
H           -2.34478580510000        2.52755120900000        1.65490192450000
H           -3.88809761480000        0.90875813410000       -0.43161073220000
H           -3.09933371290000       -1.36340292720000       -0.42644833330000
H            1.07072464110000       -2.19009330850000       -0.16658787280000
H            1.89800945530000        1.40383727740000        0.77032334290000
H           -1.28626222910000        2.86393304530000       -1.10936099510000
H            0.46726173900000        2.62777312870000       -1.31892903850000
H           -0.85117303430000        4.67344372660000        0.54297314850000
H           -0.05268142620000        5.03516459600000       -0.99520013340000
H            0.88841336360000        4.42826165270000        0.37603857450000
