
Running Job 1 of 1 fragments/C006/conf-0/spe_input.inp
qchem fragments/C006/conf-0/spe_input.inp_359741.0 /gpfs/fs0/scratch/a/aspuru/rhickman/descriptor_computation/qchem359741/ 0
/scinet/niagara/software/commercial/qc52/exe/qcprog.exe_s fragments/C006/conf-0/spe_input.inp_359741.0 /gpfs/fs0/scratch/a/aspuru/rhickman/descriptor_computation/qchem359741/
                  Welcome to Q-Chem
     A Quantum Leap Into The Future Of Chemistry


 Q-Chem 5.2, Q-Chem, Inc., Pleasanton, CA (2019)

 License issued to: SRG Alan Aspuru-Guzik, University of Toronto

 Yihan Shao,  Zhengting Gan,  E. Epifanovsky,  A. T. B. Gilbert,  M. Wormit,  
 J. Kussmann,  A. W. Lange,  A. Behn,  Jia Deng,  Xintian Feng,  D. Ghosh,  
 M. Goldey,  P. R. Horn,  L. D. Jacobson,  I. Kaliman,  T. Kus,  A. Landau,  
 Jie Liu,  E. I. Proynov,  R. M. Richard,  R. P. Steele,  E. J. Sundstrom,  
 H. L. Woodcock III,  P. M. Zimmerman,  D. Zuev,  B. Albrecht,  E. Alguire,  
 S. A. Baeppler,  D. Barton,  Z. Benda,  Y. A. Bernard,  E. J. Berquist,  
 K. B. Bravaya,  H. Burton,  D. Casanova,  Chun-Min Chang,  Yunqing Chen,  
 A. Chien,  K. D. Closser,  M. P. Coons,  S. Coriani,  S. Dasgupta,  
 A. L. Dempwolff,  M. Diedenhofen,  Hainam Do,  R. G. Edgar,  Po-Tung Fang,  
 S. Faraji,  S. Fatehi,  Qingguo Feng,  K. D. Fenk,  J. Fosso-Tande,  
 J. Gayvert,  Qinghui Ge,  A. Ghysels,  G. Gidofalvi,  J. Gomes,  
 J. Gonthier,  A. Gunina,  D. Hait,  M. W. D. Hanson-Heine,  
 P. H. P. Harbach,  A. W. Hauser,  M. F. Herbst,  J. E. Herr,  
 E. G. Hohenstein,  Z. C. Holden,  Kerwin Hui,  B. C. Huynh,  T.-C. Jagau,  
 Hyunjun Ji,  B. Kaduk,  K. Khistyaev,  Jaehoon Kim,  P. Klunzinger,  K. Koh,  
 D. Kosenkov,  L. Koulias,  T. Kowalczyk,  C. M. Krauter,  A. Kunitsa,  
 Ka Un Lao,  A. Laurent,  K. V. Lawler,  Joonho Lee,  D. Lefrancois,  
 S. Lehtola,  D. S. Levine,  Yi-Pei Li,  You-Sheng Lin,  Fenglai Liu,  
 E. Livshits,  A. Luenser,  P. Manohar,  E. Mansoor,  S. F. Manzer,  
 Shan-Ping Mao,  Yuezhi Mao,  N. Mardirossian,  A. V. Marenich,  
 T. Markovich,  L. A. Martinez-Martinez,  S. A. Maurer,  N. J. Mayhall,  
 S. C. McKenzie,  J.-M. Mewes,  P. Morgante,  A. F. Morrison,  
 J. W. Mullinax,  K. Nanda,  T. S. Nguyen-Beck,  R. Olivares-Amaya,  
 J. A. Parkhill,  Zheng Pei,  T. M. Perrine,  F. Plasser,  P. Pokhilko,  
 S. Prager,  A. Prociuk,  E. Ramos,  D. R. Rehn,  F. Rob,  M. Scheurer,  
 M. Schneider,  N. Sergueev,  S. M. Sharada,  S. Sharma,  D. W. Small,  
 T. Stauch,  T. Stein,  Yu-Chuan Su,  A. J. W. Thom,  A. Tkatchenko,  
 T. Tsuchimochi,  N. M. Tubman,  L. Vogt,  M. L. Vidal,  O. Vydrov,  
 M. A. Watson,  J. Wenzel,  M. de Wergifosse,  T. A. Wesolowski,  A. White,  
 J. Witte,  A. Yamada,  Jun Yang,  K. Yao,  S. Yeganeh,  S. R. Yost,  
 Zhi-Qiang You,  A. Zech,  Igor Ying Zhang,  Xing Zhang,  Yan Zhao,  
 Ying Zhu,  B. R. Brooks,  G. K. L. Chan,  C. J. Cramer,  M. S. Gordon,  
 W. J. Hehre,  A. Klamt,  M. W. Schmidt,  C. D. Sherrill,  D. G. Truhlar,  
 A. Aspuru-Guzik,  R. Baer,  A. T. Bell,  N. A. Besley,  Jeng-Da Chai,  
 A. E. DePrince, III,  R. A. DiStasio Jr.,  A. Dreuw,  B. D. Dunietz,  
 T. R. Furlani,  Chao-Ping Hsu,  Yousung Jung,  Jing Kong,  D. S. Lambrecht,  
 WanZhen Liang,  C. Ochsenfeld,  V. A. Rassolov,  L. V. Slipchenko,  
 J. E. Subotnik,  T. Van Voorhis,  J. M. Herbert,  A. I. Krylov,  
 P. M. W. Gill,  M. Head-Gordon

 Contributors to earlier versions of Q-Chem not listed above: 
 R. D. Adamson,  B. Austin,  J. Baker,  G. J. O. Beran,  K. Brandhorst,  
 S. T. Brown,  E. F. C. Byrd,  A. K. Chakraborty,  C.-L. Cheng,  
 Siu Hung Chien,  D. M. Chipman,  D. L. Crittenden,  H. Dachsel,  
 R. J. Doerksen,  A. D. Dutoi,  L. Fusti-Molnar,  W. A. Goddard III,  
 A. Golubeva-Zadorozhnaya,  S. R. Gwaltney,  G. Hawkins,  A. Heyden,  
 S. Hirata,  G. Kedziora,  F. J. Keil,  C. Kelley,  Jihan Kim,  R. A. King,  
 R. Z. Khaliullin,  P. P. Korambath,  W. Kurlancheek,  A. M. Lee,  M. S. Lee,  
 S. V. Levchenko,  Ching Yeh Lin,  D. Liotard,  R. C. Lochan,  I. Lotan,  
 P. E. Maslen,  N. Nair,  D. P. O'Neill,  D. Neuhauser,  E. Neuscamman,  
 C. M. Oana,  R. Olson,  B. Peters,  R. Peverati,  P. A. Pieniazek,  
 Y. M. Rhee,  J. Ritchie,  M. A. Rohrdanz,  E. Rosta,  N. J. Russ,  
 H. F. Schaefer III,  N. E. Schultz,  N. Shenvi,  A. C. Simmonett,  A. Sodt,  
 D. Stuck,  K. S. Thanthiriwatte,  V. Vanovschi,  Tao Wang,  A. Warshel,  
 C. F. Williams,  Q. Wu,  X. Xu,  W. Zhang

 Please cite Q-Chem as follows:
 Y. Shao et al., Mol. Phys. 113, 184-215 (2015)
 DOI: 10.1080/00268976.2014.952696

 Q-Chem 5.2.1 for Intel X86 EM64T Linux

 Parts of Q-Chem use Armadillo 8.300.2 (Tropical Shenanigans).
 http://arma.sourceforge.net/

 Q-Chem begins on Tue Feb  8 16:37:49 2022  

Host: 
0

     Scratch files written to /gpfs/fs0/scratch/a/aspuru/rhickman/descriptor_computation/qchem359741//
 Jul1719 |scratch|qcdevops|jenkins|workspace|build_RNUM -1
Processing $rem in /scinet/niagara/software/commercial/qc52/config/preferences:
	 MEM_TOTAL  4000 
NAlpha2: 122
NElect   122
Mult     1

Checking the input file for inconsistencies... 	...done.

--------------------------------------------------------------
User input:
--------------------------------------------------------------
$molecule
0 1
C        -5.49535697250000   -1.15749596760000    0.02539552980000
C        -4.89349302350000    0.02609805910000   -0.01195411450000
C        -3.45762703690000    0.27084498250000   -0.00962268520000
C        -3.00114444400000    1.59112174720000   -0.01145686820000
C        -1.65034258080000    1.91081153960000   -0.00703942640000
C        -0.72920728100000    0.88248605170000   -0.00210514040000
C        -1.17537424870000   -0.45379625350000   -0.00264629880000
C        -2.51390404080000   -0.76748051580000   -0.00633059120000
C        -0.00000019760000   -1.36540044310000    0.00069945550000
O        -0.00000574150000   -2.57446692750000    0.00095844500000
C         1.17538178250000   -0.45380437220000    0.00346970770000
C         2.51390988710000   -0.76749413060000    0.00701270650000
C         3.45763809960000    0.27082761160000    0.00978215530000
C         4.89350081730000    0.02605944340000    0.01168322480000
C         5.49527769300000   -1.15747425760000   -0.02857193610000
C         3.00116877790000    1.59110863230000    0.01137576530000
C         1.65036623810000    1.91080113430000    0.00705569380000
C         0.72922635830000    0.88248038360000    0.00252571570000
H        -6.56879391820000   -1.23736390810000    0.02128849560000
H        -4.95512698010000   -2.08743217670000    0.06269356490000
H        -5.50212846560000    0.92186366240000   -0.04475053050000
H        -3.72811087990000    2.39151405640000   -0.01534835410000
H        -1.33468951580000    2.94350959540000   -0.00772786930000
H        -2.81845708460000   -1.80200139880000   -0.00853879650000
H         2.81847066400000   -1.80201079160000    0.00969693850000
H         5.50218399490000    0.92172475170000    0.04655553180000
H         4.95493474510000   -2.08731654220000   -0.06832074050000
H         6.56871446370000   -1.23737547000000   -0.02455774890000
H         3.72814401280000    2.39149893750000    0.01495027350000
H         1.33471381590000    2.94350020010000    0.00750970460000
$end

$rem
BASIS = 6-31G*
GUI = 2
METHOD = B3LYP
PRINT_ORBITALS false
MOLDEN_FORMAT false
--------------------------------------------------------------
 ----------------------------------------------------------------
             Standard Nuclear Orientation (Angstroms)
    I     Atom           X                Y                Z
 ----------------------------------------------------------------
    1      C       5.4953591299    -1.1665315806    -0.0248949594
    2      C       4.8934911823     0.0170612119     0.0124293523
    3      C       3.4576254058     0.2618079983     0.0099583384
    4      C       3.0011424316     1.5820846398     0.0117862773
    5      C       1.6503409806     1.9017743715     0.0072402652
    6      C       0.7292063436     0.8734489018     0.0021800547
    7      C       1.1753734517    -0.4628333546     0.0027259092
    8      C       2.5139029059    -0.7765175355     0.0065376989
    9      C      -0.0000001153    -1.3744376117    -0.0007682328
   10      O       0.0000056345    -2.5835040876    -0.0010643285
   11      C      -1.1753819406    -0.4628416268    -0.0036309186
   12      C      -2.5139096287    -0.7765314706    -0.0073206690
   13      C      -3.4576377065     0.2617902191    -0.0101549306
   14      C      -4.8935001856     0.0170219009    -0.0122106078
   15      C      -5.4952810065    -1.1665131224     0.0279465813
   16      C      -3.0011684198     1.5820713543    -0.0116612580
   17      C      -1.6503663770     1.9017639197    -0.0071929933
   18      C      -0.7292268136     0.8734431641    -0.0026002095
   19      H       6.5687956611    -1.2463994913    -0.0206804092
   20      H       4.9551330992    -2.0964667230    -0.0622768778
   21      H       5.5021231286     0.9128258966     0.0453156106
   22      H       3.7281083463     2.3824769347     0.0157768009
   23      H       1.3346876936     2.9344723599     0.0079280653
   24      H       2.8184558753    -1.8110384416     0.0087453540
   25      H      -2.8184699756    -1.8110480930    -0.0100678512
   26      H      -5.5021799204     0.9126881907    -0.0471177822
   27      H      -4.9549419956    -2.0963565480     0.0677222031
   28      H      -6.5687173485    -1.2464143673     0.0238199746
   29      H      -3.7281434034     2.3824616633    -0.0152856762
   30      H      -1.3347140631     2.9344630447    -0.0075829734
 ----------------------------------------------------------------
 Molecular Point Group                 C1    NOp =  1
 Largest Abelian Subgroup              C1    NOp =  1
 Nuclear Repulsion Energy =        1135.40706815 hartrees
 There are       61 alpha and       61 beta electrons
 Requested basis set is 6-31G(d)
 There are 96 shells and 294 basis functions

 Total QAlloc Memory Limit   4000 MB
 Mega-Array Size       188 MB
 MEM_STATIC part       192 MB
 A cutoff of  1.0D-08 yielded   2558 shell pairs
 There are     26875 function pairs
 Smallest overlap matrix eigenvalue = 2.78E-04

 Scale SEOQF with 1.000000e-02/1.000000e-01/1.000000e+00

 Standard Electronic Orientation quadrupole field applied
 Nucleus-field energy     =     0.0000000205 hartrees
 Guess from superposition of atomic densities
 Warning:  Energy on first SCF cycle will be non-variational
 SAD guess density has 122.000000 electrons

 -----------------------------------------------------------------------
  General SCF calculation program by
  Eric Jon Sundstrom, Paul Horn, Yuezhi Mao, Dmitri Zuev, Alec White,
  David Stuck, Shaama M.S., Shane Yost, Joonho Lee, David Small,
  Daniel Levine, Susi Lehtola, Hugh Burton, Evgeny Epifanovsky,
  Bang C. Huynh
 -----------------------------------------------------------------------
 Exchange:     0.2000 Hartree-Fock + 0.0800 Slater + 0.7200 B88
 Correlation:  0.1900 VWN1RPA + 0.8100 LYP
 Using SG-1 standard quadrature grid
 A restricted SCF calculation will be
 performed using DIIS
 SCF converges when DIIS error is below 1.0e-05
 ---------------------------------------
  Cycle       Energy         DIIS error
 ---------------------------------------
    1    -734.8156030174      4.83e-02  
    2    -729.9853015934      4.76e-03  
    3    -729.8409844334      6.54e-03  
    4    -730.1852996863      2.23e-03  
    5    -730.2328385850      3.64e-04  
    6    -730.2337014783      2.27e-04  
    7    -730.2342478765      6.31e-05  
    8    -730.2342925448      1.64e-05  
    9    -730.2342953974      3.98e-06  Convergence criterion met
 ---------------------------------------
 SCF time:   CPU 60.36s  wall 61.00s 
 SCF   energy in the final basis set =     -730.2342953974
 Total energy in the final basis set =     -730.2342953974
 
 --------------------------------------------------------------
 
                    Orbital Energies (a.u.)
 --------------------------------------------------------------
 
 Alpha MOs
 -- Occupied --
-19.1426 -10.2728 -10.2065 -10.2061 -10.2061 -10.2061 -10.2027 -10.2027
-10.2014 -10.2014 -10.2012 -10.2012 -10.1958 -10.1958 -10.1943 -10.1943
-10.1850 -10.1850  -1.0431  -0.9005  -0.8681  -0.8293  -0.7908  -0.7825
 -0.7577  -0.7518  -0.7155  -0.6779  -0.6510  -0.6101  -0.6034  -0.5823
 -0.5688  -0.5491  -0.5198  -0.4956  -0.4939  -0.4662  -0.4598  -0.4563
 -0.4547  -0.4423  -0.4333  -0.4327  -0.4137  -0.4136  -0.4011  -0.3819
 -0.3800  -0.3751  -0.3593  -0.3567  -0.3534  -0.3483  -0.3303  -0.2955
 -0.2686  -0.2629  -0.2503  -0.2490  -0.2095
 -- Virtual --
 -0.0838  -0.0560  -0.0168   0.0002   0.0274   0.0837   0.0891   0.0919
  0.0993   0.1118   0.1168   0.1198   0.1365   0.1503   0.1826   0.1856
  0.1906   0.2000   0.2057   0.2085   0.2131   0.2229   0.2460   0.2551
  0.2773   0.2953   0.3032   0.3119   0.3156   0.3443   0.3455   0.3584
  0.3950   0.4016   0.4139   0.4198   0.4536   0.4862   0.4931   0.5017
  0.5087   0.5261   0.5315   0.5353   0.5448   0.5469   0.5471   0.5482
  0.5566   0.5590   0.5805   0.5827   0.5889   0.5907   0.5925   0.5975
  0.6015   0.6148   0.6165   0.6263   0.6359   0.6412   0.6437   0.6642
  0.6809   0.6823   0.6946   0.7091   0.7137   0.7240   0.7429   0.7511
  0.7721   0.7916   0.8053   0.8089   0.8200   0.8298   0.8360   0.8389
  0.8572   0.8672   0.8753   0.8781   0.8807   0.9038   0.9148   0.9284
  0.9387   0.9556   0.9662   0.9751   0.9826   1.0008   1.0047   1.0181
  1.0183   1.0274   1.0718   1.0878   1.1037   1.1108   1.1177   1.1275
  1.1498   1.1786   1.1864   1.2144   1.2287   1.2554   1.2636   1.2698
  1.2859   1.2986   1.3130   1.3203   1.3252   1.3374   1.3777   1.3890
  1.4410   1.4429   1.4544   1.4556   1.4611   1.4643   1.4655   1.4743
  1.4841   1.5054   1.5110   1.5223   1.5418   1.5737   1.6467   1.6711
  1.6714   1.7209   1.7334   1.7404   1.7653   1.7792   1.7809   1.7930
  1.8143   1.8147   1.8469   1.8497   1.8856   1.9120   1.9164   1.9182
  1.9312   1.9589   1.9762   1.9922   1.9938   1.9985   2.0067   2.0176
  2.0602   2.0686   2.0969   2.1131   2.1305   2.1321   2.1412   2.1508
  2.1887   2.2018   2.2099   2.2160   2.2404   2.2527   2.2608   2.2860
  2.3014   2.3064   2.3069   2.3164   2.3762   2.3911   2.3975   2.4168
  2.4615   2.4749   2.4907   2.5651   2.5731   2.5830   2.5904   2.6155
  2.6493   2.6669   2.6713   2.6996   2.7093   2.7414   2.7462   2.7615
  2.7962   2.8386   2.8721   2.8938   2.9189   2.9547   2.9733   2.9739
  3.1019   3.1126   3.1477   3.2395   3.3385   3.3943   3.5504   3.9909
  4.0788   4.0833   4.0837   4.1208   4.1292   4.1374   4.1657   4.1720
  4.2342   4.2722   4.3426   4.3518   4.4722   4.5414   4.6905   4.8429
  4.8610
 --------------------------------------------------------------
 
          Ground-State Mulliken Net Atomic Charges

     Atom                 Charge (a.u.)
  ----------------------------------------
      1 C                    -0.349126
      2 C                    -0.118701
      3 C                     0.183622
      4 C                    -0.204949
      5 C                    -0.190735
      6 C                     0.082751
      7 C                     0.045954
      8 C                    -0.242507
      9 C                     0.344467
     10 O                    -0.460196
     11 C                     0.045954
     12 C                    -0.242506
     13 C                     0.183607
     14 C                    -0.118702
     15 C                    -0.349114
     16 C                    -0.204941
     17 C                    -0.190736
     18 C                     0.082752
     19 H                     0.147757
     20 H                     0.150624
     21 H                     0.128471
     22 H                     0.135021
     23 H                     0.135871
     24 H                     0.153810
     25 H                     0.153809
     26 H                     0.128479
     27 H                     0.150620
     28 H                     0.147754
     29 H                     0.135019
     30 H                     0.135871
  ----------------------------------------
  Sum of atomic charges =     0.000000

 -----------------------------------------------------------------
                    Cartesian Multipole Moments
 -----------------------------------------------------------------
    Charge (ESU x 10^10)
                 0.0000
    Dipole Moment (Debye)
         X      -0.0002      Y       3.1830      Z       0.0011
       Tot       3.1830
    Quadrupole Moments (Debye-Ang)
        XX     -84.6748     XY      -0.0004     YY     -99.4619
        XZ       0.0595     YZ      -0.0079     ZZ    -107.4399
    Octopole Moments (Debye-Ang^2)
       XXX      -0.0046    XXY      -3.2218    XYY       0.0030
       YYY      29.1114    XXZ       0.0062    XYZ       1.0530
       YYZ       0.0232    XZZ      -0.0022    YZZ      -6.1525
       ZZZ      -0.0111
    Hexadecapole Moments (Debye-Ang^3)
      XXXX   -5748.6302   XXXY      -0.0204   XXYY   -1130.3226
      XYYY      -0.0076   YYYY   -1139.2335   XXXZ       2.7337
      XXYZ      -0.1590   XYYZ      -1.0488   YYYZ      -0.0379
      XXZZ   -1200.2051   XYZZ       0.0036   YYZZ    -218.2137
      XZZZ       0.2173   YZZZ       0.0170   ZZZZ    -108.7034
 -----------------------------------------------------------------
Archival summary:
1\1\nia2015.scinet.local\SP\ProcedureUnspecified\6-31G*\11712\rhickman\TueFeb816:38:512022TueFeb816:38:512022\0\\#,ProcedureUnspecified,6-31G*,\\0,1\O\C,1,1.20907\C,2,1.48746,1,127.796\C,3,1.3748,2,129.014,1,-0.00878015,0\H,4,1.07842,3,119.593,2,-0.089182,0\C,4,1.40312,3,119.078,2,-179.973,0\C,6,1.39696,4,118.66,3,0.113189,0\H,7,1.08126,6,118.68,4,179.918,0\C,7,1.38812,6,122.387,4,-0.151555,0\H,9,1.07986,7,120.311,6,-179.944,0\C,9,1.38057,7,118.538,6,0.0707943,0\C,6,1.45658,4,122.594,3,-179.922,0\H,12,1.08347,6,114.512,4,-178.236,0\C,12,1.32836,6,126.607,4,1.97451,0\H,14,1.07611,12,122.922,6,0.0117439,0\H,14,1.07641,12,121.188,6,179.92,0\C,11,1.45844,9,131.853,7,179.965,0\C,17,1.38057,11,131.853,9,0.201397,0\H,18,1.07986,17,121.151,11,-0.00965296,0\C,18,1.38812,17,118.538,11,179.975,0\H,20,1.08126,18,118.933,17,-179.999,0\C,20,1.39696,18,122.387,17,0.0734726,0\C,22,1.40312,20,118.66,18,-0.159464,0\H,23,1.07842,22,121.327,20,-179.752,0\C,23,1.3748,22,119.078,20,0.118739,0\C,22,1.45658,20,118.746,18,179.869,0\H,26,1.08348,22,114.515,20,1.87753,0\C,26,1.32835,22,126.603,20,-177.897,0\H,28,1.07618,26,122.921,22,0.0140729,0\H,28,1.07641,26,121.185,22,179.918,0\\\@

 Total job time:  62.10s(wall), 60.61s(cpu) 
 Tue Feb  8 16:38:51 2022

        *************************************************************
        *                                                           *
        *  Thank you very much for using Q-Chem.  Have a nice day.  *
        *                                                           *
        *************************************************************


