
Running Job 1 of 1 tidas/B054/conf-0/spe_input.inp
qchem tidas/B054/conf-0/spe_input.inp_239594.0 /home/a/aspuru/seifridm/acdc_laser/descriptor_computation/qchem239594/ 0
/gpfs/fs1/scinet/niagara/software/commercial/qc54/exe/qcprog.exe_s tidas/B054/conf-0/spe_input.inp_239594.0 /home/a/aspuru/seifridm/acdc_laser/descriptor_computation/qchem239594/
                  Welcome to Q-Chem
     A Quantum Leap Into The Future Of Chemistry


 Q-Chem 5.4, Q-Chem, Inc., Pleasanton, CA (2021)

 License issued to: SRG Alan Aspuru-Guzik, University of Toronto

 E. Epifanovsky,  A. T. B. Gilbert,  Xintian Feng,  Joonho Lee,  Yuezhi Mao,  
 N. Mardirossian,  P. Pokhilko,  A. White,  M. Wormit,  M. P. Coons,  
 A. L. Dempwolff,  Zhengting Gan,  D. Hait,  P. R. Horn,  L. D. Jacobson,  
 I. Kaliman,  J. Kussmann,  A. W. Lange,  Ka Un Lao,  D. S. Levine,  Jie Liu,  
 S. C. McKenzie,  A. F. Morrison,  K. Nanda,  F. Plasser,  D. R. Rehn,  
 M. L. Vidal,  Zhi-Qiang You,  Ying Zhu,  B. Alam,  B. Albrecht,  
 A. Aldossary,  E. Alguire,  J. H. Andersen,  D. Barton,  K. Begam,  A. Behn,  
 Y. A. Bernard,  E. J. Berquist,  H. Burton,  A. Carreras,  K. Carter-Fenk,  
 Romit Chakraborty,  A. D. Chien,  K. D. Closser,  V. Cofer-Shabica,  
 S. Dasgupta,  Jia Deng,  M. de Wergifosse,  M. Diedenhofen,  Hainam Do,  
 S. Ehlert,  Po-Tung Fang,  S. Fatehi,  Qingguo Feng,  T. Friedhoff,  
 J. Gayvert,  Qinghui Ge,  G. Gidofalvi,  M. Goldey,  J. Gomes,  
 C. Gonzalez-Espinoza,  S. Gulania,  A. Gunina,  M. W. D. Hanson-Heine,  
 P. H. P. Harbach,  A. W. Hauser,  M. F. Herbst,  M. Hernandez Vera,  
 M. Hodecker,  Z. C. Holden,  S. Houck,  Xunkun Huang,  Kerwin Hui,  
 B. C. Huynh,  M. Ivanov,  Hyunjun Ji,  Hanjie Jiang,  B. Kaduk,  S. Kaehler,  
 K. Khistyaev,  Jaehoon Kim,  P. Klunzinger,  Z. Koczor-Benda,  
 Joong Hoon Koh,  D. Kosenkov,  L. Koulias,  T. Kowalczyk,  C. M. Krauter,  
 K. Kue,  A. Kunitsa,  T. Kus,  A. Landau,  K. V. Lawler,  D. Lefrancois,  
 S. Lehtola,  Rain Li,  Yi-Pei Li,  Jiashu Liang,  M. Liebenthal,  
 Hung-Hsuan Lin,  You-Sheng Lin,  Fenglai Liu,  Kuan-Yu Liu,  
 M. Loipersberger,  A. Luenser,  A. Manjanath,  P. Manohar,  E. Mansoor,  
 S. F. Manzer,  Shan-Ping Mao,  A. V. Marenich,  T. Markovich,  S. Mason,  
 S. A. Maurer,  P. F. McLaughlin,  M. F. S. J. Menger,  J.-M. Mewes,  
 S. A. Mewes,  P. Morgante,  J. W. Mullinax,  K. J. Oosterbaan,  G. Paran,  
 Alexander C. Paul,  Suranjan K. Paul,  F. Pavosevic,  Zheng Pei,  S. Prager,  
 E. I. Proynov,  E. Ramos,  B. Rana,  A. E. Rask,  A. Rettig,  R. M. Richard,  
 F. Rob,  E. Rossomme,  T. Scheele,  M. Scheurer,  M. Schneider,  
 N. Sergueev,  S. M. Sharada,  W. Skomorowski,  D. W. Small,  C. J. Stein,  
 Yu-Chuan Su,  E. J. Sundstrom,  Zhen Tao,  J. Thirman,  T. Tsuchimochi,  
 N. M. Tubman,  S. P. Veccham,  O. Vydrov,  J. Wenzel,  J. Witte,  A. Yamada,  
 Kun Yao,  S. Yeganeh,  S. R. Yost,  A. Zech,  Igor Ying Zhang,  Xing Zhang,  
 Yu Zhang,  D. Zuev,  A. Aspuru-Guzik,  A. T. Bell,  N. A. Besley,  
 K. B. Bravaya,  B. R. Brooks,  D. Casanova,  Jeng-Da Chai,  S. Coriani,  
 C. J. Cramer,  A. E. DePrince, III,  R. A. DiStasio Jr.,  A. Dreuw,  
 B. D. Dunietz,  T. R. Furlani,  W. A. Goddard III,  S. Grimme,  
 S. Hammes-Schiffer,  T. Head-Gordon,  W. J. Hehre,  Chao-Ping Hsu,  
 T.-C. Jagau,  Yousung Jung,  A. Klamt,  Jing Kong,  D. S. Lambrecht,  
 WanZhen Liang,  N. J. Mayhall,  C. W. McCurdy,  J. B. Neaton,  T. Neudecker,  
 C. Ochsenfeld,  J. A. Parkhill,  R. Peverati,  V. A. Rassolov,  Yihan Shao,  
 L. V. Slipchenko,  R. P. Steele,  J. E. Subotnik,  A. J. W. Thom,  
 A. Tkatchenko,  D. G. Truhlar,  T. Van Voorhis,  T. A. Wesolowski,  
 K. B. Whaley,  H. L. Woodcock III,  P. M. Zimmerman,  S. Faraji,  
 P. M. W. Gill,  M. Head-Gordon,  J. M. Herbert,  A. I. Krylov

 Additional authors since Version 5.4.0: 
 Chandrima Chakravarty,  L. Cunha,  R. Kang,  Yongbin Kim,  S. Kotaru,  
 Shaozhi Li,  Xiangyuan Li,  F. Matz,  A. Molle,  V. Parravicini,  
 Haisheng Ren,  Hengyuan Shen,  Yingli Su,  Hung-Yi Tsai,  C. Utku,  
 Fang Wang,  Jeff Yang,  F. Zeller

 Contributors to earlier versions of Q-Chem not listed above: 
 R. D. Adamson,  B. Austin,  R. Baer,  J. Baker,  G. J. O. Beran,  
 K. Brandhorst,  S. T. Brown,  E. F. C. Byrd,  Arup K. Chakraborty,  
 G. K. L. Chan,  Chun-Min Chang,  Yunqing Chen,  C.-L. Cheng,  
 Siu Hung Chien,  D. M. Chipman,  D. L. Crittenden,  H. Dachsel,  
 R. J. Doerksen,  A. D. Dutoi,  R. G. Edgar,  J. Fosso-Tande,  
 L. Fusti-Molnar,  D. Ghosh,  A. Ghysels,  A. Golubeva-Zadorozhnaya,  
 J. Gonthier,  M. S. Gordon,  S. R. Gwaltney,  G. Hawkins,  J. E. Herr,  
 A. Heyden,  S. Hirata,  E. G. Hohenstein,  G. Kedziora,  F. J. Keil,  
 C. Kelley,  Jihan Kim,  R. A. King,  R. Z. Khaliullin,  P. P. Korambath,  
 W. Kurlancheek,  A. Laurent,  A. M. Lee,  M. S. Lee,  S. V. Levchenko,  
 Ching Yeh Lin,  D. Liotard,  E. Livshits,  R. C. Lochan,  I. Lotan,  
 L. A. Martinez-Martinez,  P. E. Maslen,  N. Nair,  D. P. O'Neill,  
 D. Neuhauser,  E. Neuscamman,  C. M. Oana,  R. Olivares-Amaya,  R. Olson,  
 T. M. Perrine,  B. Peters,  P. A. Pieniazek,  A. Prociuk,  Y. M. Rhee,  
 J. Ritchie,  M. A. Rohrdanz,  E. Rosta,  N. J. Russ,  H. F. Schaefer III,  
 M. W. Schmidt,  N. E. Schultz,  S. Sharma,  N. Shenvi,  C. D. Sherrill,  
 A. C. Simmonett,  A. Sodt,  T. Stein,  D. Stuck,  K. S. Thanthiriwatte,  
 V. Vanovschi,  L. Vogt,  Tao Wang,  A. Warshel,  M. A. Watson,  
 C. F. Williams,  Q. Wu,  X. Xu,  Jun Yang,  W. Zhang,  Yan Zhao

   Please cite Q-Chem as follows:
  "Software for the frontiers of quantum chemistry:
   An overview of developments in the Q-Chem 5 package"
   J. Chem. Phys. 155, 084801 (2021)
   https://doi.org/10.1063/5.0055522 (open access)

 Q-Chem 5.4.2 for Intel X86 EM64T Linux

 Parts of Q-Chem use Armadillo 9.900.5 (Nocturnal Misbehaviour).
 http://arma.sourceforge.net/

 Q-Chem begins on Fri Aug 12 12:43:23 2022  

 Host: 
0

     Scratch files written to /home/a/aspuru/seifridm/acdc_laser/descriptor_computation/qchem239594//
 Dec1321 |scratch|qcdevops|jenkins|workspace|build_RNUM 6959   
 Processing $rem in /gpfs/fs1/scinet/niagara/software/commercial/qc54/config/preferences:
 Processing $rem in /home/a/aspuru/seifridm/.qchemrc:

 Checking the input file for inconsistencies... 	...done.

--------------------------------------------------------------
User input:
--------------------------------------------------------------
$molecule
0 1
C           -1.23145425290000        3.73683814720000        0.00869950840000
C           -1.98574199830000        2.64460392330000       -0.00181987510000
C           -1.52086741030000        1.26148686070000       -0.00110300630000
C           -2.46927759440000        0.23638510140000       -0.00354466000000
C           -2.10266259320000       -1.09912045990000       -0.00222953290000
C           -3.10862815260000       -2.20727142930000       -0.00326944440000
C           -0.74556712100000       -1.39087972660000        0.00132991780000
F           -0.37265638550000       -2.69190904700000        0.00260630350000
C            0.24482094660000       -0.40514174650000        0.00276942590000
C            1.63728779990000       -0.82522865880000        0.00565648330000
C            2.72121413930000       -0.06480782070000       -0.00061771400000
F            2.79045958660000        1.26170495580000       -0.01092111850000
F            3.95618607970000       -0.55894126130000        0.00265793750000
C           -0.17061170340000        0.92419029880000        0.00169468310000
H           -1.67375476050000        4.71810625450000        0.00743437860000
H           -0.15574083950000        3.70685944270000        0.01918726120000
H           -3.06339816880000        2.75274371620000       -0.01120840880000
H           -3.52004326450000        0.48827899780000       -0.00627891800000
H           -4.11965309220000       -1.81122250370000       -0.02910060030000
H           -2.99112539000000       -2.82228674590000        0.88814327960000
H           -2.95702081220000       -2.85259874670000       -0.86748442470000
H            1.81838148230000       -1.89046255720000        0.01298319530000
H            0.56780548610000        1.70602175960000        0.00279310270000
$end

$rem
BASIS = 6-31G*
GUI = 2
METHOD = B3LYP
PRINT_ORBITALS false
MOLDEN_FORMAT false
$end
--------------------------------------------------------------
 ----------------------------------------------------------------
             Standard Nuclear Orientation (Angstroms)
    I     Atom           X                Y                Z
 ----------------------------------------------------------------
    1      C      -1.1039412075    -3.7133799623    -0.0082174298
    2      C      -1.8636710897    -2.6249218708     0.0020660231
    3      C      -1.4057040392    -1.2395023815     0.0012147205
    4      C      -2.3592180070    -0.2191456975     0.0034071157
    5      C      -1.9992716657     1.1181724803     0.0019526635
    6      C      -3.0107545487     2.2212899443     0.0027253539
    7      C      -0.6436485795     1.4166996317    -0.0014894480
    8      F      -0.2772345485     2.7195734196    -0.0028997384
    9      C       0.3516462048     0.4359158448    -0.0026801970
   10      C       1.7419997912     0.8629456396    -0.0054632863
   11      C       2.8297064393     0.1079439953     0.0010398308
   12      F       2.9055691962    -1.2182053174     0.0115317748
   13      F       4.0621976238     0.6082334324    -0.0021601551
   14      C      -0.0571479554    -0.8954725301    -0.0014726185
   15      H      -1.5413397709    -4.6968427826    -0.0068699418
   16      H      -0.0283895690    -3.6780351666    -0.0185847792
   17      H      -2.9407753049    -2.7384366244     0.0113445657
   18      H      -3.4087139414    -0.4762794798     0.0060540581
   19      H      -4.0197935947     1.8202043680     0.0284934109
   20      H      -2.8962184505     2.8367631481    -0.8887574563
   21      H      -2.8624699094     2.8674828639     0.8668700414
   22      H       1.9177764950     1.9290689430    -0.0129140105
   23      H       0.6851615452    -1.6736096445    -0.0023791872
 ----------------------------------------------------------------
 Molecular Point Group                 C1    NOp =  1
 Largest Abelian Subgroup              C1    NOp =  1
 Nuclear Repulsion Energy =         849.30807676 hartrees
 There are       51 alpha and       51 beta electrons
 Requested basis set is 6-31G(d)
 There are 74 shells and 228 basis functions

 Total QAlloc Memory Limit   8000 MB
 Mega-Array Size       188 MB
 MEM_STATIC part       192 MB
 A cutoff of  1.0D-08 yielded   1792 shell pairs
 There are     18252 function pairs
 Smallest overlap matrix eigenvalue = 3.20E-04

 Scale SEOQF with 1.000000e-01/1.000000e-01/1.000000e+00

 Standard Electronic Orientation quadrupole field applied
 Nucleus-field energy     =     0.0000000411 hartrees
 Guess from superposition of atomic densities
 Warning:  Energy on first SCF cycle will be non-variational
 SAD guess density has 102.000000 electrons

 -----------------------------------------------------------------------
  General SCF calculation program by
  Eric Jon Sundstrom, Paul Horn, Yuezhi Mao, Dmitri Zuev, Alec White,
  David Stuck, Shaama M.S., Shane Yost, Joonho Lee, David Small,
  Daniel Levine, Susi Lehtola, Hugh Burton, Evgeny Epifanovsky,
  Bang C. Huynh
 -----------------------------------------------------------------------
 Exchange:     0.2000 Hartree-Fock + 0.0800 Slater + 0.7200 B88
 Correlation:  0.1900 VWN1RPA + 0.8100 LYP
 Using SG-1 standard quadrature grid
 A restricted SCF calculation will be
 performed using DIIS
 SCF converges when DIIS error is below 1.0e-05
 ---------------------------------------
  Cycle       Energy         DIIS error
 ---------------------------------------
    1    -727.1202667399      5.21e-02  
    2    -723.8369750575      5.91e-03  
    3    -723.6606856018      7.80e-03  
    4    -724.0562838960      1.35e-03  
    5    -724.0675986873      4.33e-04  
    6    -724.0685060165      2.16e-04  
    7    -724.0688088188      4.45e-05  
    8    -724.0688206681      1.75e-05  
    9    -724.0688229993      5.38e-06  Convergence criterion met
 ---------------------------------------
 SCF time:   CPU 52.26s  wall 60.00s 
 SCF   energy in the final basis set =     -724.0688229993
 Total energy in the final basis set =     -724.0688229993
 
 --------------------------------------------------------------
 
                    Orbital Energies (a.u.)
 --------------------------------------------------------------
 
 Alpha MOs
 -- Occupied --
-24.7468 -24.7364 -24.7138 -10.3595 -10.2700 -10.2136 -10.2049 -10.2035
-10.1979 -10.1930 -10.1920 -10.1919 -10.1878 -10.1806  -1.2881  -1.2270
 -1.2240  -0.8788  -0.8197  -0.8018  -0.7603  -0.7313  -0.6962  -0.6536
 -0.6276  -0.6132  -0.5795  -0.5562  -0.5394  -0.5253  -0.5215  -0.5025
 -0.4758  -0.4704  -0.4481  -0.4432  -0.4406  -0.4294  -0.4271  -0.4197
 -0.4112  -0.4052  -0.3988  -0.3755  -0.3745  -0.3515  -0.3435  -0.3181
 -0.2799  -0.2319  -0.2173
 -- Virtual --
 -0.0312  -0.0301   0.0453   0.0822   0.0979   0.1090   0.1100   0.1212
  0.1347   0.1453   0.1579   0.1652   0.1860   0.2004   0.2052   0.2107
  0.2396   0.2493   0.2763   0.3154   0.3381   0.3485   0.3561   0.4142
  0.4241   0.4281   0.4654   0.4899   0.4934   0.5142   0.5144   0.5379
  0.5384   0.5419   0.5602   0.5607   0.5646   0.5853   0.5916   0.6025
  0.6134   0.6259   0.6279   0.6362   0.6497   0.6888   0.6972   0.7010
  0.7412   0.7572   0.7698   0.7758   0.8137   0.8149   0.8248   0.8453
  0.8617   0.8793   0.8803   0.8874   0.9135   0.9269   0.9520   0.9578
  0.9660   1.0088   1.0161   1.0492   1.0524   1.1032   1.1162   1.1560
  1.1578   1.1657   1.2077   1.2138   1.2249   1.2258   1.2426   1.2626
  1.2666   1.3117   1.3224   1.3445   1.3529   1.3680   1.3966   1.4039
  1.4123   1.4377   1.4573   1.4639   1.4761   1.5007   1.5111   1.5360
  1.5571   1.6002   1.6555   1.6751   1.7136   1.7650   1.7743   1.7785
  1.7981   1.8002   1.8028   1.8274   1.8344   1.8356   1.8530   1.8683
  1.8794   1.8975   1.9415   1.9424   1.9707   1.9752   1.9904   2.0177
  2.0179   2.0318   2.0476   2.0781   2.0901   2.1220   2.1582   2.1763
  2.2008   2.2240   2.2264   2.2372   2.2535   2.3030   2.3071   2.3188
  2.3445   2.3647   2.3709   2.3839   2.4685   2.4976   2.5219   2.5328
  2.5624   2.6046   2.6324   2.6542   2.6670   2.6998   2.7410   2.7892
  2.8335   2.8798   2.9167   2.9543   3.0197   3.0847   3.1032   3.1500
  3.2051   3.3513   3.4777   4.0673   4.0911   4.1023   4.1263   4.1573
  4.2220   4.2503   4.2714   4.4555   4.5014   4.7465   4.7866   5.2862
  5.6485
 --------------------------------------------------------------
 
          Ground-State Mulliken Net Atomic Charges

     Atom                 Charge (a.u.)
  ----------------------------------------
      1 C                    -0.354565
      2 C                    -0.116630
      3 C                     0.199347
      4 C                    -0.265223
      5 C                     0.111880
      6 C                    -0.522646
      7 C                     0.241223
      8 F                    -0.289423
      9 C                     0.133319
     10 C                    -0.298244
     11 C                     0.550982
     12 F                    -0.234066
     13 F                    -0.245561
     14 C                    -0.272912
     15 H                     0.144800
     16 H                     0.146534
     17 H                     0.126938
     18 H                     0.127003
     19 H                     0.156838
     20 H                     0.172117
     21 H                     0.171940
     22 H                     0.174879
     23 H                     0.141469
  ----------------------------------------
  Sum of atomic charges =     0.000000

 -----------------------------------------------------------------
                    Cartesian Multipole Moments
 -----------------------------------------------------------------
    Charge (ESU x 10^10)
                 0.0000
    Dipole Moment (Debye)
         X      -1.4762      Y      -0.1286      Z      -0.0053
       Tot       1.4818
    Quadrupole Moments (Debye-Ang)
        XX     -74.4234     XY      -0.4800     YY     -75.8595
        XZ      -0.0389     YZ       0.0039     ZZ     -80.4184
    Octopole Moments (Debye-Ang^2)
       XXX      11.6996    XXY       6.9610    XYY      11.7104
       YYY       0.8051    XXZ       0.1001    XYZ       0.1049
       YYZ      -0.0476    XZZ      22.0879    YZZ      11.8818
       ZZZ       0.0428
    Hexadecapole Moments (Debye-Ang^3)
      XXXX   -2174.2572   XXXY     -13.6609   XXYY    -605.7284
      XYYY       1.1782   YYYY   -1563.7119   XXXZ      -0.3019
      XXYZ      -0.3303   XYYZ      -0.1735   YYYZ       0.1935
      XXZZ    -381.0930   XYZZ     -17.4434   YYZZ    -298.8577
      XZZZ       0.3856   YZZZ      -0.3643   ZZZZ     -82.0109
 -----------------------------------------------------------------
 Total job time:  62.78s(wall), 52.66s(cpu) 
 Fri Aug 12 12:44:26 2022

        *************************************************************
        *                                                           *
        *  Thank you very much for using Q-Chem.  Have a nice day.  *
        *                                                           *
        *************************************************************


