
Running Job 1 of 1 tidas/B054/conf-0/spe_input.inp
qchem tidas/B054/conf-0/spe_input.inp_134494.0 /home/a/aspuru/seifridm/acdc_laser/descriptor_computation/qchem134494/ 0
/gpfs/fs1/scinet/niagara/software/commercial/qc54/exe/qcprog.exe_s tidas/B054/conf-0/spe_input.inp_134494.0 /home/a/aspuru/seifridm/acdc_laser/descriptor_computation/qchem134494/
                  Welcome to Q-Chem
     A Quantum Leap Into The Future Of Chemistry


 Q-Chem 5.4, Q-Chem, Inc., Pleasanton, CA (2021)

 License issued to: SRG Alan Aspuru-Guzik, University of Toronto

 E. Epifanovsky,  A. T. B. Gilbert,  Xintian Feng,  Joonho Lee,  Yuezhi Mao,  
 N. Mardirossian,  P. Pokhilko,  A. White,  M. Wormit,  M. P. Coons,  
 A. L. Dempwolff,  Zhengting Gan,  D. Hait,  P. R. Horn,  L. D. Jacobson,  
 I. Kaliman,  J. Kussmann,  A. W. Lange,  Ka Un Lao,  D. S. Levine,  Jie Liu,  
 S. C. McKenzie,  A. F. Morrison,  K. Nanda,  F. Plasser,  D. R. Rehn,  
 M. L. Vidal,  Zhi-Qiang You,  Ying Zhu,  B. Alam,  B. Albrecht,  
 A. Aldossary,  E. Alguire,  J. H. Andersen,  D. Barton,  K. Begam,  A. Behn,  
 Y. A. Bernard,  E. J. Berquist,  H. Burton,  A. Carreras,  K. Carter-Fenk,  
 Romit Chakraborty,  A. D. Chien,  K. D. Closser,  V. Cofer-Shabica,  
 S. Dasgupta,  Jia Deng,  M. de Wergifosse,  M. Diedenhofen,  Hainam Do,  
 S. Ehlert,  Po-Tung Fang,  S. Fatehi,  Qingguo Feng,  T. Friedhoff,  
 J. Gayvert,  Qinghui Ge,  G. Gidofalvi,  M. Goldey,  J. Gomes,  
 C. Gonzalez-Espinoza,  S. Gulania,  A. Gunina,  M. W. D. Hanson-Heine,  
 P. H. P. Harbach,  A. W. Hauser,  M. F. Herbst,  M. Hernandez Vera,  
 M. Hodecker,  Z. C. Holden,  S. Houck,  Xunkun Huang,  Kerwin Hui,  
 B. C. Huynh,  M. Ivanov,  Hyunjun Ji,  Hanjie Jiang,  B. Kaduk,  S. Kaehler,  
 K. Khistyaev,  Jaehoon Kim,  P. Klunzinger,  Z. Koczor-Benda,  
 Joong Hoon Koh,  D. Kosenkov,  L. Koulias,  T. Kowalczyk,  C. M. Krauter,  
 K. Kue,  A. Kunitsa,  T. Kus,  A. Landau,  K. V. Lawler,  D. Lefrancois,  
 S. Lehtola,  Rain Li,  Yi-Pei Li,  Jiashu Liang,  M. Liebenthal,  
 Hung-Hsuan Lin,  You-Sheng Lin,  Fenglai Liu,  Kuan-Yu Liu,  
 M. Loipersberger,  A. Luenser,  A. Manjanath,  P. Manohar,  E. Mansoor,  
 S. F. Manzer,  Shan-Ping Mao,  A. V. Marenich,  T. Markovich,  S. Mason,  
 S. A. Maurer,  P. F. McLaughlin,  M. F. S. J. Menger,  J.-M. Mewes,  
 S. A. Mewes,  P. Morgante,  J. W. Mullinax,  K. J. Oosterbaan,  G. Paran,  
 Alexander C. Paul,  Suranjan K. Paul,  F. Pavosevic,  Zheng Pei,  S. Prager,  
 E. I. Proynov,  E. Ramos,  B. Rana,  A. E. Rask,  A. Rettig,  R. M. Richard,  
 F. Rob,  E. Rossomme,  T. Scheele,  M. Scheurer,  M. Schneider,  
 N. Sergueev,  S. M. Sharada,  W. Skomorowski,  D. W. Small,  C. J. Stein,  
 Yu-Chuan Su,  E. J. Sundstrom,  Zhen Tao,  J. Thirman,  T. Tsuchimochi,  
 N. M. Tubman,  S. P. Veccham,  O. Vydrov,  J. Wenzel,  J. Witte,  A. Yamada,  
 Kun Yao,  S. Yeganeh,  S. R. Yost,  A. Zech,  Igor Ying Zhang,  Xing Zhang,  
 Yu Zhang,  D. Zuev,  A. Aspuru-Guzik,  A. T. Bell,  N. A. Besley,  
 K. B. Bravaya,  B. R. Brooks,  D. Casanova,  Jeng-Da Chai,  S. Coriani,  
 C. J. Cramer,  A. E. DePrince, III,  R. A. DiStasio Jr.,  A. Dreuw,  
 B. D. Dunietz,  T. R. Furlani,  W. A. Goddard III,  S. Grimme,  
 S. Hammes-Schiffer,  T. Head-Gordon,  W. J. Hehre,  Chao-Ping Hsu,  
 T.-C. Jagau,  Yousung Jung,  A. Klamt,  Jing Kong,  D. S. Lambrecht,  
 WanZhen Liang,  N. J. Mayhall,  C. W. McCurdy,  J. B. Neaton,  T. Neudecker,  
 C. Ochsenfeld,  J. A. Parkhill,  R. Peverati,  V. A. Rassolov,  Yihan Shao,  
 L. V. Slipchenko,  R. P. Steele,  J. E. Subotnik,  A. J. W. Thom,  
 A. Tkatchenko,  D. G. Truhlar,  T. Van Voorhis,  T. A. Wesolowski,  
 K. B. Whaley,  H. L. Woodcock III,  P. M. Zimmerman,  S. Faraji,  
 P. M. W. Gill,  M. Head-Gordon,  J. M. Herbert,  A. I. Krylov

 Additional authors since Version 5.4.0: 
 Chandrima Chakravarty,  L. Cunha,  R. Kang,  Yongbin Kim,  S. Kotaru,  
 Shaozhi Li,  Xiangyuan Li,  F. Matz,  A. Molle,  V. Parravicini,  
 Haisheng Ren,  Hengyuan Shen,  Yingli Su,  Hung-Yi Tsai,  C. Utku,  
 Fang Wang,  Jeff Yang,  F. Zeller

 Contributors to earlier versions of Q-Chem not listed above: 
 R. D. Adamson,  B. Austin,  R. Baer,  J. Baker,  G. J. O. Beran,  
 K. Brandhorst,  S. T. Brown,  E. F. C. Byrd,  Arup K. Chakraborty,  
 G. K. L. Chan,  Chun-Min Chang,  Yunqing Chen,  C.-L. Cheng,  
 Siu Hung Chien,  D. M. Chipman,  D. L. Crittenden,  H. Dachsel,  
 R. J. Doerksen,  A. D. Dutoi,  R. G. Edgar,  J. Fosso-Tande,  
 L. Fusti-Molnar,  D. Ghosh,  A. Ghysels,  A. Golubeva-Zadorozhnaya,  
 J. Gonthier,  M. S. Gordon,  S. R. Gwaltney,  G. Hawkins,  J. E. Herr,  
 A. Heyden,  S. Hirata,  E. G. Hohenstein,  G. Kedziora,  F. J. Keil,  
 C. Kelley,  Jihan Kim,  R. A. King,  R. Z. Khaliullin,  P. P. Korambath,  
 W. Kurlancheek,  A. Laurent,  A. M. Lee,  M. S. Lee,  S. V. Levchenko,  
 Ching Yeh Lin,  D. Liotard,  E. Livshits,  R. C. Lochan,  I. Lotan,  
 L. A. Martinez-Martinez,  P. E. Maslen,  N. Nair,  D. P. O'Neill,  
 D. Neuhauser,  E. Neuscamman,  C. M. Oana,  R. Olivares-Amaya,  R. Olson,  
 T. M. Perrine,  B. Peters,  P. A. Pieniazek,  A. Prociuk,  Y. M. Rhee,  
 J. Ritchie,  M. A. Rohrdanz,  E. Rosta,  N. J. Russ,  H. F. Schaefer III,  
 M. W. Schmidt,  N. E. Schultz,  S. Sharma,  N. Shenvi,  C. D. Sherrill,  
 A. C. Simmonett,  A. Sodt,  T. Stein,  D. Stuck,  K. S. Thanthiriwatte,  
 V. Vanovschi,  L. Vogt,  Tao Wang,  A. Warshel,  M. A. Watson,  
 C. F. Williams,  Q. Wu,  X. Xu,  Jun Yang,  W. Zhang,  Yan Zhao

   Please cite Q-Chem as follows:
  "Software for the frontiers of quantum chemistry:
   An overview of developments in the Q-Chem 5 package"
   J. Chem. Phys. 155, 084801 (2021)
   https://doi.org/10.1063/5.0055522 (open access)

 Q-Chem 5.4.2 for Intel X86 EM64T Linux

 Parts of Q-Chem use Armadillo 9.900.5 (Nocturnal Misbehaviour).
 http://arma.sourceforge.net/

 Q-Chem begins on Fri Aug 12 13:11:43 2022  

 Host: 
0

     Scratch files written to /home/a/aspuru/seifridm/acdc_laser/descriptor_computation/qchem134494//
 Dec1321 |scratch|qcdevops|jenkins|workspace|build_RNUM 6959   
 Processing $rem in /gpfs/fs1/scinet/niagara/software/commercial/qc54/config/preferences:
 Processing $rem in /home/a/aspuru/seifridm/.qchemrc:

 Checking the input file for inconsistencies... 	...done.

--------------------------------------------------------------
User input:
--------------------------------------------------------------
$molecule
0 1
C           -1.23298524460000        3.73633451780000       -0.02713943790000
C           -1.98633698160000        2.64421577210000        0.01597302300000
C           -1.52114381840000        1.26120499410000        0.01062217930000
C           -2.46933482120000        0.23589880770000        0.00618250700000
C           -2.10240395830000       -1.09948285770000       -0.00080465240000
C           -3.10804452320000       -2.20791119630000       -0.00650077630000
C           -0.74522212470000       -1.39090307460000       -0.00183973170000
F           -0.37203704830000       -2.69183633320000       -0.00810591340000
C            0.24492447410000       -0.40496154140000        0.00417861380000
C            1.63744541270000       -0.82478363590000        0.00368718240000
C            2.72130026510000       -0.06424129940000        0.00127160530000
F            2.79058283760000        1.26227061210000       -0.00107965030000
F            3.95625007500000       -0.55849816910000        0.00039448770000
C           -0.17080580900000        0.92429277690000        0.01082890140000
H           -1.67527442900000        4.71757891770000       -0.02011385200000
H           -0.15815133460000        3.70614223150000       -0.07257935210000
H           -3.06332261630000        2.75227700670000        0.05590531870000
H           -3.52014783170000        0.48760058870000        0.00699230010000
H           -4.11945339350000       -1.81186807970000       -0.00732022960000
H           -2.97500351960000       -2.84104789970000        0.86991431420000
H           -2.97126118840000       -2.83533902120000       -0.88640982960000
H            1.81876082040000       -1.88999246270000        0.00427994520000
H            0.56743765510000        1.70628236790000        0.01889419660000
$end

$rem
BASIS = 6-31G*
GUI = 2
METHOD = B3LYP
PRINT_ORBITALS false
MOLDEN_FORMAT false
$end
--------------------------------------------------------------
 ----------------------------------------------------------------
             Standard Nuclear Orientation (Angstroms)
    I     Atom           X                Y                Z
 ----------------------------------------------------------------
    1      C      -1.1056005870    -3.7128705694     0.0263157513
    2      C      -1.8643543420    -2.6244870896    -0.0165213674
    3      C      -1.4060158676    -1.2391905772    -0.0109054554
    4      C      -2.3592727610    -0.2185938140    -0.0061930925
    5      C      -1.9989594023     1.1185871841     0.0010548518
    6      C      -3.0100767368     2.2220202957     0.0070446292
    7      C      -0.6432373995     1.4167250062     0.0020716024
    8      F      -0.2764993429     2.7194891468     0.0085909155
    9      C       0.3517795288     0.4357005298    -0.0042135807
   10      C       1.7422042656     0.8624137827    -0.0037154059
   11      C       2.8298125236     0.1072480401    -0.0015245206
   12      F       2.9056638829    -1.2189049507     0.0005421265
   13      F       4.0622994523     0.6076147057    -0.0006156352
   14      C      -0.0573629767    -0.8955949453    -0.0111204824
   15      H      -1.5430251954    -4.6962918547     0.0191087121
   16      H      -0.0309266616    -3.6773651660     0.0716987264
   17      H      -2.9407939927    -2.7378723040    -0.0564130648
   18      H      -3.4088263888    -0.4754964529    -0.0069942069
   19      H      -4.0195117655     1.8209728984     0.0078399148
   20      H      -2.8802254990     2.8559931859    -0.8692443844
   21      H      -2.8763496300     2.8499320062     0.8870782893
   22      H       1.9182420111     1.9285076070    -0.0040935836
   23      H       0.6847437202    -1.6739170961    -0.0193946433
 ----------------------------------------------------------------
 Molecular Point Group                 C1    NOp =  1
 Largest Abelian Subgroup              C1    NOp =  1
 Nuclear Repulsion Energy =         849.30320363 hartrees
 There are       51 alpha and       51 beta electrons
 Requested basis set is 6-31G(d)
 There are 74 shells and 228 basis functions

 Total QAlloc Memory Limit   8000 MB
 Mega-Array Size       188 MB
 MEM_STATIC part       192 MB
 A cutoff of  1.0D-08 yielded   1792 shell pairs
 There are     18252 function pairs
 Smallest overlap matrix eigenvalue = 3.20E-04

 Scale SEOQF with 1.000000e-01/1.000000e-01/1.000000e+00

 Standard Electronic Orientation quadrupole field applied
 Nucleus-field energy     =     0.0000000411 hartrees
 Guess from superposition of atomic densities
 Warning:  Energy on first SCF cycle will be non-variational
 SAD guess density has 102.000000 electrons

 -----------------------------------------------------------------------
  General SCF calculation program by
  Eric Jon Sundstrom, Paul Horn, Yuezhi Mao, Dmitri Zuev, Alec White,
  David Stuck, Shaama M.S., Shane Yost, Joonho Lee, David Small,
  Daniel Levine, Susi Lehtola, Hugh Burton, Evgeny Epifanovsky,
  Bang C. Huynh
 -----------------------------------------------------------------------
 Exchange:     0.2000 Hartree-Fock + 0.0800 Slater + 0.7200 B88
 Correlation:  0.1900 VWN1RPA + 0.8100 LYP
 Using SG-1 standard quadrature grid
 A restricted SCF calculation will be
 performed using DIIS
 SCF converges when DIIS error is below 1.0e-05
 ---------------------------------------
  Cycle       Energy         DIIS error
 ---------------------------------------
    1    -727.1201341980      5.21e-02  
    2    -723.8369999577      5.91e-03  
    3    -723.6607336938      7.80e-03  
    4    -724.0562874065      1.35e-03  
    5    -724.0676016377      4.33e-04  
    6    -724.0685090808      2.16e-04  
    7    -724.0688117895      4.45e-05  
    8    -724.0688236361      1.75e-05  
    9    -724.0688259752      5.38e-06  Convergence criterion met
 ---------------------------------------
 SCF time:   CPU 53.89s  wall 56.00s 
 SCF   energy in the final basis set =     -724.0688259752
 Total energy in the final basis set =     -724.0688259752
 
 --------------------------------------------------------------
 
                    Orbital Energies (a.u.)
 --------------------------------------------------------------
 
 Alpha MOs
 -- Occupied --
-24.7468 -24.7364 -24.7138 -10.3595 -10.2700 -10.2136 -10.2049 -10.2035
-10.1979 -10.1930 -10.1920 -10.1919 -10.1878 -10.1807  -1.2881  -1.2270
 -1.2240  -0.8788  -0.8197  -0.8018  -0.7603  -0.7313  -0.6962  -0.6536
 -0.6276  -0.6132  -0.5795  -0.5562  -0.5394  -0.5253  -0.5215  -0.5025
 -0.4758  -0.4704  -0.4481  -0.4432  -0.4406  -0.4294  -0.4271  -0.4197
 -0.4112  -0.4052  -0.3988  -0.3757  -0.3743  -0.3515  -0.3435  -0.3181
 -0.2799  -0.2319  -0.2173
 -- Virtual --
 -0.0311  -0.0301   0.0452   0.0822   0.0980   0.1090   0.1101   0.1213
  0.1347   0.1453   0.1579   0.1652   0.1860   0.2005   0.2052   0.2106
  0.2394   0.2493   0.2764   0.3154   0.3380   0.3486   0.3560   0.4142
  0.4239   0.4280   0.4651   0.4899   0.4934   0.5140   0.5146   0.5379
  0.5384   0.5419   0.5598   0.5610   0.5646   0.5853   0.5916   0.6025
  0.6134   0.6258   0.6279   0.6363   0.6498   0.6890   0.6968   0.7011
  0.7412   0.7572   0.7698   0.7758   0.8137   0.8149   0.8249   0.8453
  0.8617   0.8795   0.8800   0.8873   0.9135   0.9269   0.9519   0.9578
  0.9660   1.0088   1.0159   1.0490   1.0520   1.1032   1.1161   1.1559
  1.1577   1.1654   1.2077   1.2137   1.2248   1.2258   1.2425   1.2626
  1.2666   1.3087   1.3243   1.3444   1.3529   1.3679   1.3963   1.4039
  1.4123   1.4377   1.4564   1.4644   1.4761   1.5006   1.5117   1.5360
  1.5570   1.5999   1.6555   1.6752   1.7136   1.7650   1.7743   1.7785
  1.7981   1.8002   1.8028   1.8274   1.8343   1.8357   1.8530   1.8684
  1.8794   1.8975   1.9415   1.9425   1.9707   1.9752   1.9904   2.0177
  2.0178   2.0317   2.0477   2.0781   2.0900   2.1221   2.1582   2.1761
  2.2008   2.2236   2.2268   2.2373   2.2536   2.3031   2.3070   2.3188
  2.3443   2.3644   2.3709   2.3840   2.4685   2.4974   2.5218   2.5327
  2.5624   2.6048   2.6323   2.6538   2.6675   2.6999   2.7410   2.7891
  2.8334   2.8797   2.9167   2.9542   3.0197   3.0846   3.1031   3.1499
  3.2051   3.3513   3.4777   4.0673   4.0911   4.1023   4.1263   4.1571
  4.2220   4.2503   4.2714   4.4555   4.5014   4.7463   4.7866   5.2861
  5.6486
 --------------------------------------------------------------
 
          Ground-State Mulliken Net Atomic Charges

     Atom                 Charge (a.u.)
  ----------------------------------------
      1 C                    -0.354449
      2 C                    -0.116728
      3 C                     0.199208
      4 C                    -0.265120
      5 C                     0.111877
      6 C                    -0.522630
      7 C                     0.241242
      8 F                    -0.289420
      9 C                     0.133287
     10 C                    -0.298245
     11 C                     0.550968
     12 F                    -0.234052
     13 F                    -0.245586
     14 C                    -0.272863
     15 H                     0.144793
     16 H                     0.146516
     17 H                     0.126982
     18 H                     0.126994
     19 H                     0.156825
     20 H                     0.172010
     21 H                     0.172025
     22 H                     0.174878
     23 H                     0.141489
  ----------------------------------------
  Sum of atomic charges =     0.000000

 -----------------------------------------------------------------
                    Cartesian Multipole Moments
 -----------------------------------------------------------------
    Charge (ESU x 10^10)
                 0.0000
    Dipole Moment (Debye)
         X      -1.4769      Y      -0.1290      Z      -0.0054
       Tot       1.4825
    Quadrupole Moments (Debye-Ang)
        XX     -74.4289     XY      -0.4794     YY     -75.8590
        XZ       0.0916     YZ      -0.0183     ZZ     -80.4140
    Octopole Moments (Debye-Ang^2)
       XXX      11.7167    XXY       6.9628    XYY      11.6990
       YYY       0.7988    XXZ      -0.2685    XYZ      -0.3268
       YYZ       0.1456    XZZ      22.0898    YZZ      11.8627
       ZZZ       0.1064
    Hexadecapole Moments (Debye-Ang^3)
      XXXX   -2174.4249   XXXY     -13.6850   XXYY    -605.7502
      XYYY       1.1942   YYYY   -1563.6347   XXXZ       0.8225
      XXYZ       0.9931   XYYZ       0.8744   YYYZ      -0.8777
      XXZZ    -381.1219   XYZZ     -17.4418   YYZZ    -298.7868
      XZZZ       0.0016   YZZZ       0.3582   ZZZZ     -82.0872
 -----------------------------------------------------------------
 Total job time:  59.52s(wall), 54.41s(cpu) 
 Fri Aug 12 13:12:42 2022

        *************************************************************
        *                                                           *
        *  Thank you very much for using Q-Chem.  Have a nice day.  *
        *                                                           *
        *************************************************************


