
Running Job 1 of 1 fragments/C147/conf-2/spe_input.inp
qchem fragments/C147/conf-2/spe_input.inp_246608.0 /gpfs/fs0/scratch/a/aspuru/rhickman/descriptor_computation/qchem246608/ 0
/scinet/niagara/software/commercial/qc52/exe/qcprog.exe_s fragments/C147/conf-2/spe_input.inp_246608.0 /gpfs/fs0/scratch/a/aspuru/rhickman/descriptor_computation/qchem246608/
                  Welcome to Q-Chem
     A Quantum Leap Into The Future Of Chemistry


 Q-Chem 5.2, Q-Chem, Inc., Pleasanton, CA (2019)

 License issued to: SRG Alan Aspuru-Guzik, University of Toronto

 Yihan Shao,  Zhengting Gan,  E. Epifanovsky,  A. T. B. Gilbert,  M. Wormit,  
 J. Kussmann,  A. W. Lange,  A. Behn,  Jia Deng,  Xintian Feng,  D. Ghosh,  
 M. Goldey,  P. R. Horn,  L. D. Jacobson,  I. Kaliman,  T. Kus,  A. Landau,  
 Jie Liu,  E. I. Proynov,  R. M. Richard,  R. P. Steele,  E. J. Sundstrom,  
 H. L. Woodcock III,  P. M. Zimmerman,  D. Zuev,  B. Albrecht,  E. Alguire,  
 S. A. Baeppler,  D. Barton,  Z. Benda,  Y. A. Bernard,  E. J. Berquist,  
 K. B. Bravaya,  H. Burton,  D. Casanova,  Chun-Min Chang,  Yunqing Chen,  
 A. Chien,  K. D. Closser,  M. P. Coons,  S. Coriani,  S. Dasgupta,  
 A. L. Dempwolff,  M. Diedenhofen,  Hainam Do,  R. G. Edgar,  Po-Tung Fang,  
 S. Faraji,  S. Fatehi,  Qingguo Feng,  K. D. Fenk,  J. Fosso-Tande,  
 J. Gayvert,  Qinghui Ge,  A. Ghysels,  G. Gidofalvi,  J. Gomes,  
 J. Gonthier,  A. Gunina,  D. Hait,  M. W. D. Hanson-Heine,  
 P. H. P. Harbach,  A. W. Hauser,  M. F. Herbst,  J. E. Herr,  
 E. G. Hohenstein,  Z. C. Holden,  Kerwin Hui,  B. C. Huynh,  T.-C. Jagau,  
 Hyunjun Ji,  B. Kaduk,  K. Khistyaev,  Jaehoon Kim,  P. Klunzinger,  K. Koh,  
 D. Kosenkov,  L. Koulias,  T. Kowalczyk,  C. M. Krauter,  A. Kunitsa,  
 Ka Un Lao,  A. Laurent,  K. V. Lawler,  Joonho Lee,  D. Lefrancois,  
 S. Lehtola,  D. S. Levine,  Yi-Pei Li,  You-Sheng Lin,  Fenglai Liu,  
 E. Livshits,  A. Luenser,  P. Manohar,  E. Mansoor,  S. F. Manzer,  
 Shan-Ping Mao,  Yuezhi Mao,  N. Mardirossian,  A. V. Marenich,  
 T. Markovich,  L. A. Martinez-Martinez,  S. A. Maurer,  N. J. Mayhall,  
 S. C. McKenzie,  J.-M. Mewes,  P. Morgante,  A. F. Morrison,  
 J. W. Mullinax,  K. Nanda,  T. S. Nguyen-Beck,  R. Olivares-Amaya,  
 J. A. Parkhill,  Zheng Pei,  T. M. Perrine,  F. Plasser,  P. Pokhilko,  
 S. Prager,  A. Prociuk,  E. Ramos,  D. R. Rehn,  F. Rob,  M. Scheurer,  
 M. Schneider,  N. Sergueev,  S. M. Sharada,  S. Sharma,  D. W. Small,  
 T. Stauch,  T. Stein,  Yu-Chuan Su,  A. J. W. Thom,  A. Tkatchenko,  
 T. Tsuchimochi,  N. M. Tubman,  L. Vogt,  M. L. Vidal,  O. Vydrov,  
 M. A. Watson,  J. Wenzel,  M. de Wergifosse,  T. A. Wesolowski,  A. White,  
 J. Witte,  A. Yamada,  Jun Yang,  K. Yao,  S. Yeganeh,  S. R. Yost,  
 Zhi-Qiang You,  A. Zech,  Igor Ying Zhang,  Xing Zhang,  Yan Zhao,  
 Ying Zhu,  B. R. Brooks,  G. K. L. Chan,  C. J. Cramer,  M. S. Gordon,  
 W. J. Hehre,  A. Klamt,  M. W. Schmidt,  C. D. Sherrill,  D. G. Truhlar,  
 A. Aspuru-Guzik,  R. Baer,  A. T. Bell,  N. A. Besley,  Jeng-Da Chai,  
 A. E. DePrince, III,  R. A. DiStasio Jr.,  A. Dreuw,  B. D. Dunietz,  
 T. R. Furlani,  Chao-Ping Hsu,  Yousung Jung,  Jing Kong,  D. S. Lambrecht,  
 WanZhen Liang,  C. Ochsenfeld,  V. A. Rassolov,  L. V. Slipchenko,  
 J. E. Subotnik,  T. Van Voorhis,  J. M. Herbert,  A. I. Krylov,  
 P. M. W. Gill,  M. Head-Gordon

 Contributors to earlier versions of Q-Chem not listed above: 
 R. D. Adamson,  B. Austin,  J. Baker,  G. J. O. Beran,  K. Brandhorst,  
 S. T. Brown,  E. F. C. Byrd,  A. K. Chakraborty,  C.-L. Cheng,  
 Siu Hung Chien,  D. M. Chipman,  D. L. Crittenden,  H. Dachsel,  
 R. J. Doerksen,  A. D. Dutoi,  L. Fusti-Molnar,  W. A. Goddard III,  
 A. Golubeva-Zadorozhnaya,  S. R. Gwaltney,  G. Hawkins,  A. Heyden,  
 S. Hirata,  G. Kedziora,  F. J. Keil,  C. Kelley,  Jihan Kim,  R. A. King,  
 R. Z. Khaliullin,  P. P. Korambath,  W. Kurlancheek,  A. M. Lee,  M. S. Lee,  
 S. V. Levchenko,  Ching Yeh Lin,  D. Liotard,  R. C. Lochan,  I. Lotan,  
 P. E. Maslen,  N. Nair,  D. P. O'Neill,  D. Neuhauser,  E. Neuscamman,  
 C. M. Oana,  R. Olson,  B. Peters,  R. Peverati,  P. A. Pieniazek,  
 Y. M. Rhee,  J. Ritchie,  M. A. Rohrdanz,  E. Rosta,  N. J. Russ,  
 H. F. Schaefer III,  N. E. Schultz,  N. Shenvi,  A. C. Simmonett,  A. Sodt,  
 D. Stuck,  K. S. Thanthiriwatte,  V. Vanovschi,  Tao Wang,  A. Warshel,  
 C. F. Williams,  Q. Wu,  X. Xu,  W. Zhang

 Please cite Q-Chem as follows:
 Y. Shao et al., Mol. Phys. 113, 184-215 (2015)
 DOI: 10.1080/00268976.2014.952696

 Q-Chem 5.2.1 for Intel X86 EM64T Linux

 Parts of Q-Chem use Armadillo 8.300.2 (Tropical Shenanigans).
 http://arma.sourceforge.net/

 Q-Chem begins on Mon Feb  7 08:17:04 2022  

Host: 
0

     Scratch files written to /gpfs/fs0/scratch/a/aspuru/rhickman/descriptor_computation/qchem246608//
 Jul1719 |scratch|qcdevops|jenkins|workspace|build_RNUM -1
Processing $rem in /scinet/niagara/software/commercial/qc52/config/preferences:
	 MEM_TOTAL  4000 
NAlpha2: 98
NElect   98
Mult     1

Checking the input file for inconsistencies... 	...done.

--------------------------------------------------------------
User input:
--------------------------------------------------------------
$molecule
0 1
C        -2.89001324350000    2.59395091480000   -0.37005192020000
C        -2.65723547430000    1.45698004550000    0.27098019860000
C        -1.39719406610000    0.71590012830000    0.19905445540000
C        -0.21503161230000    1.41619461840000    0.12824676920000
C         0.99640598630000    0.71904760130000    0.04372846280000
N         2.23066631640000    1.22177026510000   -0.02484085480000
S         3.27442179970000    0.00087504140000   -0.10072962970000
N         2.23063550120000   -1.22122107210000   -0.04800676270000
C         0.99639266600000   -0.71986046600000    0.03008290490000
C        -0.21507659140000   -1.41843769140000    0.10141669600000
C        -1.39718854640000   -0.71955542340000    0.18552763010000
C        -2.65717023800000   -1.46200586500000    0.24366046340000
C        -2.89033222630000   -2.58581996990000   -0.42000352950000
H        -3.82960677940000    3.11127319530000   -0.27851870770000
H        -2.16089985960000    3.03982467960000   -1.02562136000000
H        -3.43635988970000    1.03066350930000    0.88789526320000
H        -0.20344070780000    2.49383291540000    0.15790695750000
H        -0.20357686540000   -2.49644826620000    0.11069481700000
H        -3.43570889600000   -1.04837941640000    0.86990146370000
H        -2.16168065020000   -3.01815139450000   -1.08509732250000
H        -3.82973244010000   -3.10510778480000   -0.33812150160000
$end

$rem
BASIS = 6-31G*
GUI = 2
METHOD = B3LYP
PRINT_ORBITALS false
MOLDEN_FORMAT false
--------------------------------------------------------------
 ----------------------------------------------------------------
             Standard Nuclear Orientation (Angstroms)
    I     Atom           X                Y                Z
 ----------------------------------------------------------------
    1      C      -2.7896537553    -2.5902147550     0.4085506302
    2      C      -2.5608919139    -1.4594138158    -0.2447239528
    3      C      -1.3004492367    -0.7177208556    -0.1876896054
    4      C      -0.1178502202    -1.4173450542    -0.1175489226
    5      C       1.0940689959    -0.7194614478    -0.0472022913
    6      N       2.3287454065    -1.2215457478     0.0184932755
    7      S       3.3729173677    -0.0000148170     0.0762588622
    8      N       2.3287893584     1.2215554201     0.0183684113
    9      C       1.0940997190     0.7195113182    -0.0472748964
   10      C      -0.1178087538     1.4174142208    -0.1177433527
   11      C      -1.3004003135     0.7177984192    -0.1878481389
   12      C      -2.5607395785     1.4596998913    -0.2452335944
   13      C      -2.7898090309     2.5897969567     0.4091213240
   14      H      -3.7297827747    -3.1083570761     0.3277877331
   15      H      -2.0564722652    -3.0298411498     1.0638021595
   16      H      -3.3438429659    -1.0389737159    -0.8608267147
   17      H      -0.1064132051    -2.4952174949    -0.1370058292
   18      H      -0.1063973097     2.4952870031    -0.1373691232
   19      H      -3.3431390396     1.0401462514    -0.8626580012
   20      H      -2.0570550341     3.0284266553     1.0655273730
   21      H      -3.7297141155     3.1083096256     0.3281256013
 ----------------------------------------------------------------
 Molecular Point Group                 C1    NOp =  1
 Largest Abelian Subgroup              C1    NOp =  1
 Nuclear Repulsion Energy =         807.81656163 hartrees
 There are       49 alpha and       49 beta electrons
 Requested basis set is 6-31G(d)
 There are 69 shells and 215 basis functions

 Total QAlloc Memory Limit   4000 MB
 Mega-Array Size       188 MB
 MEM_STATIC part       192 MB
 A cutoff of  1.0D-08 yielded   1684 shell pairs
 There are     17700 function pairs
 Smallest overlap matrix eigenvalue = 3.06E-04

 Scale SEOQF with 1.000000e-01/1.000000e-01/1.000000e+00

 Standard Electronic Orientation quadrupole field applied
 Nucleus-field energy     =     0.0000000261 hartrees
 Guess from superposition of atomic densities
 Warning:  Energy on first SCF cycle will be non-variational
 SAD guess density has 98.000000 electrons

 -----------------------------------------------------------------------
  General SCF calculation program by
  Eric Jon Sundstrom, Paul Horn, Yuezhi Mao, Dmitri Zuev, Alec White,
  David Stuck, Shaama M.S., Shane Yost, Joonho Lee, David Small,
  Daniel Levine, Susi Lehtola, Hugh Burton, Evgeny Epifanovsky,
  Bang C. Huynh
 -----------------------------------------------------------------------
 Exchange:     0.2000 Hartree-Fock + 0.0800 Slater + 0.7200 B88
 Correlation:  0.1900 VWN1RPA + 0.8100 LYP
 Using SG-1 standard quadrature grid
 A restricted SCF calculation will be
 performed using DIIS
 SCF converges when DIIS error is below 1.0e-05
 ---------------------------------------
  Cycle       Energy         DIIS error
 ---------------------------------------
    1    -896.8593655709      5.66e-02  
    2    -893.2703524192      6.06e-03  
    3    -893.0745609435      8.08e-03  
    4    -893.4880528838      1.55e-03  
    5    -893.5007778917      7.99e-04  
    6    -893.5042128952      2.95e-04  
    7    -893.5046856384      8.69e-05  
    8    -893.5047332385      2.46e-05  
    9    -893.5047365287      7.30e-06  Convergence criterion met
 ---------------------------------------
 SCF time:   CPU 35.93s  wall 36.00s 
 SCF   energy in the final basis set =     -893.5047365287
 Total energy in the final basis set =     -893.5047365287
 
 --------------------------------------------------------------
 
                    Orbital Energies (a.u.)
 --------------------------------------------------------------
 
 Alpha MOs
 -- Occupied --
-88.9705 -14.3582 -14.3582 -10.2344 -10.2340 -10.2150 -10.2146 -10.2010
-10.2010 -10.2010 -10.2010 -10.1910 -10.1910  -8.0267  -5.9919  -5.9860
 -5.9844  -1.0251  -0.8865  -0.8778  -0.8034  -0.8033  -0.7404  -0.7384
 -0.6669  -0.6299  -0.5995  -0.5756  -0.5719  -0.5156  -0.5047  -0.4795
 -0.4591  -0.4573  -0.4509  -0.4392  -0.4177  -0.3999  -0.3913  -0.3721
 -0.3650  -0.3527  -0.3306  -0.3147  -0.2979  -0.2922  -0.2883  -0.2395
 -0.2302
 -- Virtual --
 -0.0855  -0.0273  -0.0034   0.0165   0.0333   0.0598   0.0872   0.0952
  0.1237   0.1268   0.1386   0.1540   0.1729   0.1814   0.1902   0.2395
  0.2456   0.2575   0.2690   0.2857   0.3073   0.3122   0.3353   0.3375
  0.3401   0.3652   0.3761   0.4086   0.4106   0.4461   0.4900   0.4943
  0.5024   0.5230   0.5246   0.5347   0.5381   0.5686   0.5699   0.5750
  0.5890   0.5975   0.6110   0.6166   0.6297   0.6353   0.6391   0.6497
  0.6769   0.6785   0.6874   0.6907   0.7263   0.7386   0.7392   0.7777
  0.7984   0.8023   0.8215   0.8356   0.8491   0.8569   0.8703   0.8753
  0.8805   0.9122   0.9171   0.9316   0.9489   0.9521   0.9653   0.9675
  0.9765   1.0080   1.0324   1.0516   1.0942   1.0949   1.0954   1.1296
  1.1371   1.1673   1.1763   1.2023   1.2446   1.2606   1.2774   1.3009
  1.3085   1.3423   1.3915   1.3968   1.4085   1.4498   1.5026   1.5083
  1.5167   1.5717   1.6417   1.6670   1.6730   1.6902   1.7217   1.7605
  1.7882   1.7942   1.8200   1.8720   1.8800   1.8922   1.8993   1.9210
  1.9296   1.9481   1.9768   1.9833   2.0082   2.0401   2.0648   2.0928
  2.1260   2.1358   2.2104   2.2276   2.2403   2.2878   2.2917   2.2969
  2.2973   2.3492   2.3674   2.3943   2.4340   2.4394   2.4769   2.4874
  2.5462   2.5476   2.5866   2.6304   2.6808   2.7073   2.7153   2.7565
  2.7623   2.7826   2.9020   2.9605   2.9817   2.9848   3.0786   3.2585
  3.4542   3.8700   3.9742   4.0004   4.0800   4.1224   4.1279   4.1488
  4.1657   4.2868   4.2943   4.4052   4.4944   4.7964
 --------------------------------------------------------------
 
          Ground-State Mulliken Net Atomic Charges

     Atom                 Charge (a.u.)
  ----------------------------------------
      1 C                    -0.329289
      2 C                    -0.127163
      3 C                     0.092891
      4 C                    -0.211674
      5 C                     0.256566
      6 N                    -0.564577
      7 S                     0.580233
      8 N                    -0.564604
      9 C                     0.256572
     10 C                    -0.211622
     11 C                     0.092763
     12 C                    -0.127289
     13 C                    -0.329238
     14 H                     0.148474
     15 H                     0.152527
     16 H                     0.139700
     17 H                     0.152468
     18 H                     0.152479
     19 H                     0.139781
     20 H                     0.152536
     21 H                     0.148469
  ----------------------------------------
  Sum of atomic charges =     0.000000

 -----------------------------------------------------------------
                    Cartesian Multipole Moments
 -----------------------------------------------------------------
    Charge (ESU x 10^10)
                 0.0000
    Dipole Moment (Debye)
         X      -2.2530      Y      -0.0001      Z      -0.0530
       Tot       2.2536
    Quadrupole Moments (Debye-Ang)
        XX     -74.8803     XY      -0.0022     YY     -79.9134
        XZ       1.6659     YZ       0.0000     ZZ     -82.1432
    Octopole Moments (Debye-Ang^2)
       XXX       2.7938    XXY       0.0046    XYY     -22.1874
       YYY      -0.0148    XXZ      -7.0015    XYZ       0.0016
       YYZ       8.9897    XZZ       7.3479    YZZ       0.0089
       ZZZ       0.7636
    Hexadecapole Moments (Debye-Ang^3)
      XXXX   -2402.1945   XXXY      -0.0177   XXYY    -607.2642
      XYYY       0.0101   YYYY   -1101.4064   XXXZ      36.3762
      XXYZ      -0.0051   XYYZ     -18.6970   YYYZ      -0.0033
      XXZZ    -459.5621   XYZZ      -0.0229   YYZZ    -214.5574
      XZZZ       3.7021   YZZZ       0.0067   ZZZZ    -120.5081
 -----------------------------------------------------------------
Archival summary:
1\1\nia0005.scinet.local\SP\ProcedureUnspecified\6-31G*\12108\rhickman\MonFeb708:17:402022MonFeb708:17:402022\0\\#,ProcedureUnspecified,6-31G*,\\0,1\S\N,1,1.60803\C,2,1.33448,1,108.466\C,3,1.40026,2,128.004,1,179.779,0\H,4,1.07811,3,119.341,2,-0.899845,0\C,4,1.37584,3,119.542,2,-179.604,0\C,6,1.43552,4,120.563,3,-0.0645064,0\C,7,1.37583,6,120.566,4,-0.00588527,0\H,8,1.07811,7,121.102,6,178.749,0\C,8,1.40027,7,119.541,6,0.0719902,0\N,10,1.33447,8,128.005,7,179.601,0\C,6,1.46358,4,118.982,3,-179.28,0\H,12,1.08137,6,116.661,4,-143.903,0\C,12,1.32582,6,124.168,4,36.3902,0\H,14,1.07649,12,121.617,6,-179.273,0\H,14,1.07712,12,122.033,6,2.05203,0\C,7,1.46361,6,120.456,4,-179.213,0\H,17,1.08138,7,116.664,6,-36.9788,0\C,17,1.32581,7,124.16,6,142.74,0\H,19,1.07649,17,121.62,7,179.269,0\H,19,1.07712,17,122.029,7,-2.05635,0\\\@

 Total job time:  36.24s(wall), 36.11s(cpu) 
 Mon Feb  7 08:17:40 2022

        *************************************************************
        *                                                           *
        *  Thank you very much for using Q-Chem.  Have a nice day.  *
        *                                                           *
        *************************************************************


