21
 energy: -34.518194351594 gnorm: 0.000027963745 xtb: 6.4.1 (23d549d)
C        -2.89001324350000    2.59395091480000   -0.37005192020000
C        -2.65723547430000    1.45698004550000    0.27098019860000
C        -1.39719406610000    0.71590012830000    0.19905445540000
C        -0.21503161230000    1.41619461840000    0.12824676920000
C         0.99640598630000    0.71904760130000    0.04372846280000
N         2.23066631640000    1.22177026510000   -0.02484085480000
S         3.27442179970000    0.00087504140000   -0.10072962970000
N         2.23063550120000   -1.22122107210000   -0.04800676270000
C         0.99639266600000   -0.71986046600000    0.03008290490000
C        -0.21507659140000   -1.41843769140000    0.10141669600000
C        -1.39718854640000   -0.71955542340000    0.18552763010000
C        -2.65717023800000   -1.46200586500000    0.24366046340000
C        -2.89033222630000   -2.58581996990000   -0.42000352950000
H        -3.82960677940000    3.11127319530000   -0.27851870770000
H        -2.16089985960000    3.03982467960000   -1.02562136000000
H        -3.43635988970000    1.03066350930000    0.88789526320000
H        -0.20344070780000    2.49383291540000    0.15790695750000
H        -0.20357686540000   -2.49644826620000    0.11069481700000
H        -3.43570889600000   -1.04837941640000    0.86990146370000
H        -2.16168065020000   -3.01815139450000   -1.08509732250000
H        -3.82973244010000   -3.10510778480000   -0.33812150160000
