
Running Job 1 of 1 fragments/C058/conf-1/spe_input.inp
qchem fragments/C058/conf-1/spe_input.inp_262674.0 /gpfs/fs0/scratch/a/aspuru/rhickman/descriptor_computation/qchem262674/ 0
/scinet/niagara/software/commercial/qc52/exe/qcprog.exe_s fragments/C058/conf-1/spe_input.inp_262674.0 /gpfs/fs0/scratch/a/aspuru/rhickman/descriptor_computation/qchem262674/
                  Welcome to Q-Chem
     A Quantum Leap Into The Future Of Chemistry


 Q-Chem 5.2, Q-Chem, Inc., Pleasanton, CA (2019)

 License issued to: SRG Alan Aspuru-Guzik, University of Toronto

 Yihan Shao,  Zhengting Gan,  E. Epifanovsky,  A. T. B. Gilbert,  M. Wormit,  
 J. Kussmann,  A. W. Lange,  A. Behn,  Jia Deng,  Xintian Feng,  D. Ghosh,  
 M. Goldey,  P. R. Horn,  L. D. Jacobson,  I. Kaliman,  T. Kus,  A. Landau,  
 Jie Liu,  E. I. Proynov,  R. M. Richard,  R. P. Steele,  E. J. Sundstrom,  
 H. L. Woodcock III,  P. M. Zimmerman,  D. Zuev,  B. Albrecht,  E. Alguire,  
 S. A. Baeppler,  D. Barton,  Z. Benda,  Y. A. Bernard,  E. J. Berquist,  
 K. B. Bravaya,  H. Burton,  D. Casanova,  Chun-Min Chang,  Yunqing Chen,  
 A. Chien,  K. D. Closser,  M. P. Coons,  S. Coriani,  S. Dasgupta,  
 A. L. Dempwolff,  M. Diedenhofen,  Hainam Do,  R. G. Edgar,  Po-Tung Fang,  
 S. Faraji,  S. Fatehi,  Qingguo Feng,  K. D. Fenk,  J. Fosso-Tande,  
 J. Gayvert,  Qinghui Ge,  A. Ghysels,  G. Gidofalvi,  J. Gomes,  
 J. Gonthier,  A. Gunina,  D. Hait,  M. W. D. Hanson-Heine,  
 P. H. P. Harbach,  A. W. Hauser,  M. F. Herbst,  J. E. Herr,  
 E. G. Hohenstein,  Z. C. Holden,  Kerwin Hui,  B. C. Huynh,  T.-C. Jagau,  
 Hyunjun Ji,  B. Kaduk,  K. Khistyaev,  Jaehoon Kim,  P. Klunzinger,  K. Koh,  
 D. Kosenkov,  L. Koulias,  T. Kowalczyk,  C. M. Krauter,  A. Kunitsa,  
 Ka Un Lao,  A. Laurent,  K. V. Lawler,  Joonho Lee,  D. Lefrancois,  
 S. Lehtola,  D. S. Levine,  Yi-Pei Li,  You-Sheng Lin,  Fenglai Liu,  
 E. Livshits,  A. Luenser,  P. Manohar,  E. Mansoor,  S. F. Manzer,  
 Shan-Ping Mao,  Yuezhi Mao,  N. Mardirossian,  A. V. Marenich,  
 T. Markovich,  L. A. Martinez-Martinez,  S. A. Maurer,  N. J. Mayhall,  
 S. C. McKenzie,  J.-M. Mewes,  P. Morgante,  A. F. Morrison,  
 J. W. Mullinax,  K. Nanda,  T. S. Nguyen-Beck,  R. Olivares-Amaya,  
 J. A. Parkhill,  Zheng Pei,  T. M. Perrine,  F. Plasser,  P. Pokhilko,  
 S. Prager,  A. Prociuk,  E. Ramos,  D. R. Rehn,  F. Rob,  M. Scheurer,  
 M. Schneider,  N. Sergueev,  S. M. Sharada,  S. Sharma,  D. W. Small,  
 T. Stauch,  T. Stein,  Yu-Chuan Su,  A. J. W. Thom,  A. Tkatchenko,  
 T. Tsuchimochi,  N. M. Tubman,  L. Vogt,  M. L. Vidal,  O. Vydrov,  
 M. A. Watson,  J. Wenzel,  M. de Wergifosse,  T. A. Wesolowski,  A. White,  
 J. Witte,  A. Yamada,  Jun Yang,  K. Yao,  S. Yeganeh,  S. R. Yost,  
 Zhi-Qiang You,  A. Zech,  Igor Ying Zhang,  Xing Zhang,  Yan Zhao,  
 Ying Zhu,  B. R. Brooks,  G. K. L. Chan,  C. J. Cramer,  M. S. Gordon,  
 W. J. Hehre,  A. Klamt,  M. W. Schmidt,  C. D. Sherrill,  D. G. Truhlar,  
 A. Aspuru-Guzik,  R. Baer,  A. T. Bell,  N. A. Besley,  Jeng-Da Chai,  
 A. E. DePrince, III,  R. A. DiStasio Jr.,  A. Dreuw,  B. D. Dunietz,  
 T. R. Furlani,  Chao-Ping Hsu,  Yousung Jung,  Jing Kong,  D. S. Lambrecht,  
 WanZhen Liang,  C. Ochsenfeld,  V. A. Rassolov,  L. V. Slipchenko,  
 J. E. Subotnik,  T. Van Voorhis,  J. M. Herbert,  A. I. Krylov,  
 P. M. W. Gill,  M. Head-Gordon

 Contributors to earlier versions of Q-Chem not listed above: 
 R. D. Adamson,  B. Austin,  J. Baker,  G. J. O. Beran,  K. Brandhorst,  
 S. T. Brown,  E. F. C. Byrd,  A. K. Chakraborty,  C.-L. Cheng,  
 Siu Hung Chien,  D. M. Chipman,  D. L. Crittenden,  H. Dachsel,  
 R. J. Doerksen,  A. D. Dutoi,  L. Fusti-Molnar,  W. A. Goddard III,  
 A. Golubeva-Zadorozhnaya,  S. R. Gwaltney,  G. Hawkins,  A. Heyden,  
 S. Hirata,  G. Kedziora,  F. J. Keil,  C. Kelley,  Jihan Kim,  R. A. King,  
 R. Z. Khaliullin,  P. P. Korambath,  W. Kurlancheek,  A. M. Lee,  M. S. Lee,  
 S. V. Levchenko,  Ching Yeh Lin,  D. Liotard,  R. C. Lochan,  I. Lotan,  
 P. E. Maslen,  N. Nair,  D. P. O'Neill,  D. Neuhauser,  E. Neuscamman,  
 C. M. Oana,  R. Olson,  B. Peters,  R. Peverati,  P. A. Pieniazek,  
 Y. M. Rhee,  J. Ritchie,  M. A. Rohrdanz,  E. Rosta,  N. J. Russ,  
 H. F. Schaefer III,  N. E. Schultz,  N. Shenvi,  A. C. Simmonett,  A. Sodt,  
 D. Stuck,  K. S. Thanthiriwatte,  V. Vanovschi,  Tao Wang,  A. Warshel,  
 C. F. Williams,  Q. Wu,  X. Xu,  W. Zhang

 Please cite Q-Chem as follows:
 Y. Shao et al., Mol. Phys. 113, 184-215 (2015)
 DOI: 10.1080/00268976.2014.952696

 Q-Chem 5.2.1 for Intel X86 EM64T Linux

 Parts of Q-Chem use Armadillo 8.300.2 (Tropical Shenanigans).
 http://arma.sourceforge.net/

 Q-Chem begins on Mon Feb  7 09:20:11 2022  

Host: 
0

     Scratch files written to /gpfs/fs0/scratch/a/aspuru/rhickman/descriptor_computation/qchem262674//
 Jul1719 |scratch|qcdevops|jenkins|workspace|build_RNUM -1
Processing $rem in /scinet/niagara/software/commercial/qc52/config/preferences:
	 MEM_TOTAL  4000 
NAlpha2: 166
NElect   166
Mult     1

Checking the input file for inconsistencies... 	...done.

--------------------------------------------------------------
User input:
--------------------------------------------------------------
$molecule
0 1
C         1.76269606240000   -3.07804027910000    1.12078228630000
C         1.97560510610000   -2.18826740320000    0.16034168570000
C         0.96781540730000   -1.26891929340000   -0.36431643070000
C        -0.36465003320000   -1.66871866230000   -0.43893188310000
C        -1.36570665320000   -0.85238074250000   -0.93508521400000
C        -2.78622369470000   -1.34099180020000   -0.93938600140000
C        -3.61098702960000   -0.65454546410000    0.15513194890000
C        -5.06583210070000   -1.11607252290000    0.13733280810000
C        -5.90702318660000   -0.50305037280000    1.25709655000000
C        -6.14041114470000    0.99698542070000    1.08939715400000
C        -7.06690260240000    1.54363917040000    2.16887333790000
C        -1.02778786300000    0.43732459200000   -1.36913127350000
C        -2.03404507150000    1.35351737780000   -1.90252203450000
C        -2.01154351890000    2.67163534090000   -1.75607072610000
C         0.30557556330000    0.83457032110000   -1.30133661690000
C         1.30886913450000    0.01310918660000   -0.81809127450000
C         2.71537568400000    0.53379607760000   -0.73421590040000
C         3.08600148340000    0.86876499510000    0.71521204770000
C         4.49078734980000    1.45338623740000    0.85782035990000
C         5.59921911550000    0.44447169880000    0.56480117320000
C         6.98428496560000    1.02496909620000    0.84097723640000
C         8.09094886740000    0.02224001320000    0.53803784820000
H         2.54143384270000   -3.73860086050000    1.46286393020000
H         0.81112151830000   -3.16878151760000    1.61751366260000
H         2.96239693030000   -2.11431343000000   -0.27828243180000
H        -0.62122954090000   -2.66716923250000   -0.11442562940000
H        -2.79941661460000   -2.42062361780000   -0.77430895830000
H        -3.25166662240000   -1.15051151160000   -1.90971788980000
H        -3.55990822970000    0.42521989830000    0.00896990120000
H        -3.16778960170000   -0.88028786340000    1.12803982930000
H        -5.09034861660000   -2.20463890970000    0.23589212700000
H        -5.51356732330000   -0.86338681400000   -0.82720678750000
H        -5.41869425020000   -0.68710195140000    2.21702028210000
H        -6.87763794800000   -1.00547967550000    1.27990223960000
H        -6.57916920610000    1.18455590210000    0.10649889160000
H        -5.18765749270000    1.52688481690000    1.13540872770000
H        -8.03554302520000    1.04964712700000    2.12815572730000
H        -7.22110969130000    2.61220142930000    2.03727849340000
H        -6.64072859800000    1.37769828120000    3.15605125180000
H        -2.85081881050000    0.89832872270000   -2.44787672610000
H        -1.24255465670000    3.17232134850000   -1.19162148710000
H        -2.77637471070000    3.30108040700000   -2.17866644380000
H         0.56797207920000    1.81918638750000   -1.66161233310000
H         2.80500656730000    1.43705915180000   -1.34170672080000
H         3.41348356350000   -0.20510952270000   -1.13076476210000
H         3.00331312850000   -0.03339891360000    1.32542652630000
H         2.35962295780000    1.59106393570000    1.09648393410000
H         4.61250574030000    1.81673350490000    1.88152987940000
H         4.59668066170000    2.31206827630000    0.19014979770000
H         5.55165809860000    0.13306519500000   -0.48040668250000
H         5.45044781560000   -0.44289106690000    1.18518877460000
H         7.04647102650000    1.32788928750000    1.88886274280000
H         7.12796015960000    1.91935306010000    0.23006894130000
H         7.97461049740000   -0.87007465990000    1.14956393100000
H         9.06748777760000    0.45432561300000    0.74415009570000
H         8.06144249900000   -0.27468019520000   -0.50828677100000
$end

$rem
BASIS = 6-31G*
GUI = 2
METHOD = B3LYP
PRINT_ORBITALS false
MOLDEN_FORMAT false
--------------------------------------------------------------
 ----------------------------------------------------------------
             Standard Nuclear Orientation (Angstroms)
    I     Atom           X                Y                Z
 ----------------------------------------------------------------
    1      C      -1.7522798632    -3.2446074019    -0.5067510972
    2      C      -1.9704749735    -2.1934768758     0.2723430498
    3      C      -0.9658074266    -1.1917922990     0.6235955117
    4      C       0.3664683117    -1.5691096417     0.7770364816
    5      C       1.3645987509    -0.6739324092     1.1192110457
    6      C       2.7853241857    -1.1513662593     1.2203252656
    7      C       3.6152401285    -0.6770603501     0.0221240692
    8      C       5.0702114156    -1.1253385644     0.1316841555
    9      C       5.9167193399    -0.7278268508    -1.0777281847
   10      C       6.1484976619     0.7777668623    -1.1880313515
   11      C       7.0801356991     1.1175868605    -2.3452083091
   12      C       1.0238431973     0.6731660563     1.3066578842
   13      C       2.0269358995     1.6733553683     1.6670671864
   14      C       2.0045024618     2.9419216665     1.2802525561
   15      C      -0.3093635670     1.0492283306     1.1603869006
   16      C      -1.3097933298     0.1513895638     0.8318320573
   17      C      -2.7161240154     0.6457154807     0.6466659660
   18      C      -3.0796160118     0.7074878333    -0.8414424913
   19      C      -4.4839627434     1.2538401783    -1.0961027171
   20      C      -5.5933433419     0.3145673940    -0.6276679900
   21      C      -6.9772955744     0.8322957202    -1.0127542838
   22      C      -8.0849614319    -0.0990679157    -0.5356997750
   23      H      -2.5289493530    -3.9579798194    -0.7251016429
   24      H      -0.7981698926    -3.4239204811    -0.9736462985
   25      H      -2.9595006190    -2.0414156212     0.6850464038
   26      H       0.6251860106    -2.6098779748     0.6432182361
   27      H       2.7998967830    -2.2429127172     1.2569765207
   28      H       3.2457778340    -0.7847765279     2.1412260417
   29      H       3.5628773235     0.4110797809    -0.0333269713
   30      H       3.1770625831    -1.0787516652    -0.8947062644
   31      H       5.0957770235    -2.2134001870     0.2354149726
   32      H       5.5129551507    -0.6986995292     1.0353492745
   33      H       5.4333242949    -1.0862136525    -1.9896941029
   34      H       6.8876917851    -1.2244766487    -1.0028963215
   35      H       6.5822049806     1.1437728060    -0.2543729947
   36      H       5.1957187008     1.2887684189    -1.3354749573
   37      H       8.0488096442     0.6409261105    -2.2095040393
   38      H       7.2331352049     2.1923256362    -2.4119169720
   39      H       6.6590228390     0.7720702916    -3.2869955219
   40      H       2.8411840657     1.3275553473     2.2908861196
   41      H       1.2381116036     3.3289923386     0.6295186326
   42      H       2.7668758854     3.6395190792     1.5834020186
   43      H      -0.5740713038     2.0829780922     1.3318819909
   44      H      -2.8092719619     1.6452794181     1.0769662894
   45      H      -3.4158445367    -0.0085149019     1.1691225630
   46      H      -2.9933973470    -0.2915072569    -1.2746559996
   47      H      -2.3516937032     1.3482494950    -1.3456878470
   48      H      -4.6007088330     1.4222641400    -2.1697979734
   49      H      -4.5936533220     2.2206456476    -0.5985211876
   50      H      -5.5508883299     0.2010491733     0.4572314100
   51      H      -5.4409988672    -0.6716590133    -1.0732855258
   52      H      -7.0343576469     0.9369587924    -2.0987935760
   53      H      -7.1244998384     1.8236847099    -0.5777221505
   54      H      -7.9650915819    -1.0885757944    -0.9718529811
   55      H      -9.0606693918     0.2862737671    -0.8226043438
   56      H      -8.0605738211    -0.1981677359     0.5475416176
 ----------------------------------------------------------------
 Molecular Point Group                 C1    NOp =  1
 Largest Abelian Subgroup              C1    NOp =  1
 Nuclear Repulsion Energy =        1709.01879125 hartrees
 There are       83 alpha and       83 beta electrons
 Requested basis set is 6-31G(d)
 There are 156 shells and 398 basis functions

 Total QAlloc Memory Limit   4000 MB
 Mega-Array Size       188 MB
 MEM_STATIC part       192 MB
 A cutoff of  1.0D-08 yielded   5179 shell pairs
 There are     36274 function pairs
 Smallest overlap matrix eigenvalue = 2.78E-04

 Scale SEOQF with 1.000000e-02/1.000000e-01/1.000000e-01

 Standard Electronic Orientation quadrupole field applied
 Nucleus-field energy     =     0.0000000139 hartrees
 Guess from superposition of atomic densities
 Warning:  Energy on first SCF cycle will be non-variational
 SAD guess density has 166.000001 electrons

 -----------------------------------------------------------------------
  General SCF calculation program by
  Eric Jon Sundstrom, Paul Horn, Yuezhi Mao, Dmitri Zuev, Alec White,
  David Stuck, Shaama M.S., Shane Yost, Joonho Lee, David Small,
  Daniel Levine, Susi Lehtola, Hugh Burton, Evgeny Epifanovsky,
  Bang C. Huynh
 -----------------------------------------------------------------------
 Exchange:     0.2000 Hartree-Fock + 0.0800 Slater + 0.7200 B88
 Correlation:  0.1900 VWN1RPA + 0.8100 LYP
 Using SG-1 standard quadrature grid
 A restricted SCF calculation will be
 performed using DIIS
 SCF converges when DIIS error is below 1.0e-05
 ---------------------------------------
  Cycle       Energy         DIIS error
 ---------------------------------------
    1    -863.2853306433      3.97e-02  
    2    -858.3608948198      4.49e-03  
    3    -858.3499764404      4.61e-03  
    4    -858.8038723988      3.38e-04  
    5    -858.8057481926      1.51e-04  
    6    -858.8062117625      3.51e-05  
    7    -858.8062314447      1.80e-05  
    8    -858.8062378789      4.50e-06  Convergence criterion met
 ---------------------------------------
 SCF time:   CPU 114.08s  wall 115.00s 
 SCF   energy in the final basis set =     -858.8062378789
 Total energy in the final basis set =     -858.8062378789
 
 --------------------------------------------------------------
 
                    Orbital Energies (a.u.)
 --------------------------------------------------------------
 
 Alpha MOs
 -- Occupied --
-10.1866 -10.1862 -10.1854 -10.1852 -10.1835 -10.1834 -10.1787 -10.1784
-10.1767 -10.1764 -10.1754 -10.1754 -10.1733 -10.1722 -10.1716 -10.1716
-10.1714 -10.1714 -10.1712 -10.1703 -10.1666 -10.1653  -0.8674  -0.8195
 -0.8050  -0.8009  -0.7836  -0.7714  -0.7601  -0.7425  -0.7122  -0.7099
 -0.6843  -0.6494  -0.6331  -0.6259  -0.5965  -0.5855  -0.5772  -0.5724
 -0.5647  -0.5615  -0.5310  -0.4962  -0.4884  -0.4719  -0.4658  -0.4582
 -0.4562  -0.4418  -0.4381  -0.4371  -0.4244  -0.4206  -0.4139  -0.4125
 -0.4089  -0.4048  -0.3974  -0.3856  -0.3825  -0.3777  -0.3693  -0.3676
 -0.3556  -0.3542  -0.3505  -0.3468  -0.3425  -0.3362  -0.3311  -0.3306
 -0.3231  -0.3214  -0.3211  -0.3181  -0.3080  -0.3053  -0.2968  -0.2943
 -0.2622  -0.2326  -0.2079
 -- Virtual --
 -0.0323   0.0114   0.0228   0.0714   0.0891   0.0918   0.1016   0.1029
  0.1137   0.1169   0.1190   0.1267   0.1280   0.1295   0.1403   0.1460
  0.1509   0.1515   0.1590   0.1621   0.1704   0.1721   0.1759   0.1788
  0.1827   0.1839   0.1893   0.1922   0.1943   0.1992   0.1998   0.2014
  0.2063   0.2091   0.2103   0.2179   0.2276   0.2320   0.2338   0.2417
  0.2454   0.2562   0.2618   0.2689   0.2697   0.2729   0.2854   0.2874
  0.2962   0.3006   0.3070   0.3156   0.3296   0.3339   0.3749   0.3879
  0.3949   0.3999   0.4340   0.4795   0.4912   0.5001   0.5018   0.5099
  0.5118   0.5156   0.5192   0.5351   0.5406   0.5428   0.5475   0.5571
  0.5586   0.5632   0.5680   0.5684   0.5761   0.5787   0.5875   0.5963
  0.6059   0.6135   0.6170   0.6202   0.6265   0.6345   0.6384   0.6524
  0.6534   0.6564   0.6598   0.6770   0.6781   0.6883   0.6950   0.6969
  0.7035   0.7091   0.7132   0.7242   0.7351   0.7457   0.7526   0.7725
  0.7749   0.7802   0.7928   0.8090   0.8117   0.8206   0.8293   0.8393
  0.8467   0.8526   0.8602   0.8643   0.8686   0.8706   0.8755   0.8788
  0.8835   0.8889   0.8936   0.9013   0.9031   0.9074   0.9119   0.9178
  0.9225   0.9307   0.9389   0.9415   0.9459   0.9482   0.9516   0.9589
  0.9622   0.9653   0.9696   0.9715   0.9734   0.9746   0.9798   0.9901
  0.9971   1.0032   1.0086   1.0144   1.0269   1.0348   1.0362   1.0539
  1.0659   1.0755   1.0853   1.1029   1.1210   1.1379   1.1532   1.1780
  1.2151   1.2172   1.2230   1.2329   1.2494   1.2568   1.2811   1.2922
  1.3036   1.3089   1.3423   1.3568   1.3973   1.3991   1.4089   1.4315
  1.4412   1.4664   1.4769   1.4857   1.4984   1.5043   1.5109   1.5181
  1.5321   1.5392   1.5613   1.5688   1.5800   1.6223   1.6611   1.6741
  1.6823   1.6911   1.7029   1.7167   1.7342   1.7513   1.7928   1.7935
  1.8078   1.8174   1.8295   1.8314   1.8349   1.8555   1.8747   1.8961
  1.9001   1.9037   1.9134   1.9248   1.9290   1.9369   1.9523   1.9652
  1.9665   1.9706   1.9751   1.9872   1.9897   1.9975   1.9990   2.0095
  2.0138   2.0218   2.0299   2.0359   2.0401   2.0520   2.0624   2.0755
  2.0900   2.1186   2.1388   2.1493   2.1708   2.1838   2.2061   2.2227
  2.2420   2.2441   2.2467   2.2558   2.2594   2.2792   2.2832   2.2974
  2.3071   2.3179   2.3357   2.3479   2.3560   2.3641   2.3678   2.3819
  2.3893   2.4031   2.4148   2.4305   2.4395   2.4428   2.4513   2.4531
  2.4676   2.4784   2.4924   2.5215   2.5541   2.5795   2.5900   2.5939
  2.6190   2.6419   2.6625   2.6887   2.6977   2.7203   2.7318   2.7371
  2.7689   2.7796   2.7939   2.8080   2.8588   2.8696   2.8779   2.9443
  2.9996   3.0500   3.1008   3.2452   3.4792   4.1265   4.1335   4.1426
  4.1478   4.1562   4.1592   4.1948   4.2213   4.2463   4.2759   4.3188
  4.3309   4.3567   4.4015   4.4136   4.4364   4.4861   4.5083   4.5506
  4.5850   4.6110   4.8264
 --------------------------------------------------------------
 
          Ground-State Mulliken Net Atomic Charges

     Atom                 Charge (a.u.)
  ----------------------------------------
      1 C                    -0.341369
      2 C                    -0.134190
      3 C                     0.121942
      4 C                    -0.268756
      5 C                     0.132073
      6 C                    -0.355970
      7 C                    -0.263654
      8 C                    -0.251948
      9 C                    -0.246365
     10 C                    -0.252890
     11 C                    -0.440653
     12 C                     0.121447
     13 C                    -0.135093
     14 C                    -0.340797
     15 C                    -0.267555
     16 C                     0.130151
     17 C                    -0.358225
     18 C                    -0.259548
     19 C                    -0.251142
     20 C                    -0.251414
     21 C                    -0.248501
     22 C                    -0.441013
     23 H                     0.140107
     24 H                     0.143295
     25 H                     0.134909
     26 H                     0.120898
     27 H                     0.139242
     28 H                     0.140442
     29 H                     0.155279
     30 H                     0.133558
     31 H                     0.125537
     32 H                     0.124869
     33 H                     0.126859
     34 H                     0.125089
     35 H                     0.128055
     36 H                     0.140967
     37 H                     0.140743
     38 H                     0.140465
     39 H                     0.141896
     40 H                     0.134124
     41 H                     0.143530
     42 H                     0.140563
     43 H                     0.120649
     44 H                     0.138169
     45 H                     0.146414
     46 H                     0.146655
     47 H                     0.132963
     48 H                     0.128503
     49 H                     0.125782
     50 H                     0.130858
     51 H                     0.128348
     52 H                     0.130702
     53 H                     0.130489
     54 H                     0.141287
     55 H                     0.141222
     56 H                     0.141003
  ----------------------------------------
  Sum of atomic charges =     0.000000

 -----------------------------------------------------------------
                    Cartesian Multipole Moments
 -----------------------------------------------------------------
    Charge (ESU x 10^10)
                 0.0000
    Dipole Moment (Debye)
         X      -0.0460      Y       0.0852      Z      -0.1217
       Tot       0.1555
    Quadrupole Moments (Debye-Ang)
        XX    -133.9088     XY      -0.5318     YY    -134.5831
        XZ       2.3224     YZ       1.8822     ZZ    -140.7197
    Octopole Moments (Debye-Ang^2)
       XXX       3.2421    XXY       0.6806    XYY       1.0121
       YYY       2.5692    XXZ      15.9201    XYZ       1.0941
       YYZ      -5.3611    XZZ      -1.3197    YZZ      -0.0589
       ZZZ      -9.1910
    Hexadecapole Moments (Debye-Ang^3)
      XXXX  -15793.8072   XXXY     -37.4794   XXYY   -2902.5220
      XYYY      25.7324   YYYY   -1854.4390   XXXZ     107.4310
      XXYZ      36.3269   XYYZ      12.2939   YYYZ      29.9638
      XXZZ   -2810.5119   XYZZ      -2.1892   YYZZ    -534.6579
      XZZZ      24.0183   YZZZ      -3.3507   ZZZZ   -1221.5021
 -----------------------------------------------------------------
Archival summary:
1\1\nia0231.scinet.local\SP\ProcedureUnspecified\6-31G*\2234\rhickman\MonFeb709:22:062022MonFeb709:22:062022\0\\#,ProcedureUnspecified,6-31G*,\\0,1\C\C,1,1.38381\H,2,1.0808,1,118.763\C,2,1.39293,1,122.801,3,178.666,0\C,1,1.40208,2,118.65,3,-179.341,0\C,5,1.39315,1,118.537,2,0.988942,0\H,6,1.08076,5,118.431,1,178.316,0\C,6,1.38372,5,122.809,1,-0.339598,0\C,5,1.46154,1,121.575,2,-179.917,0\H,9,1.08241,5,116.115,1,-32.4032,0\C,9,1.32645,5,124.833,1,147.177,0\H,11,1.07694,9,121.693,5,179.396,0\H,11,1.07725,9,122.152,5,-1.92227,0\C,4,1.46167,2,119.867,1,-179.454,0\H,14,1.08246,4,116.086,2,146.272,0\C,14,1.32642,4,124.814,2,-34.1311,0\H,16,1.07692,14,121.699,4,179.447,0\H,16,1.07733,14,122.127,4,-1.92139,0\C,1,1.50214,2,119.512,3,3.41846,0\H,19,1.09114,1,110.123,2,-134.18,0\H,19,1.09223,1,109.417,2,-15.8853,0\C,8,1.50221,6,119.554,5,-177.96,0\H,22,1.09226,8,109.42,6,-14.9607,0\H,22,1.09292,8,110.4,6,-133.123,0\C,22,1.53278,8,111.168,6,105.687,0\H,25,1.09081,22,108.81,8,56.8811,0\H,25,1.09267,22,108.968,8,-60.3497,0\C,25,1.5264,22,111.661,8,178.513,0\H,28,1.093,25,109.319,22,-60.7679,0\H,28,1.09329,25,108.746,22,56.3165,0\C,28,1.52881,25,113.244,22,177.284,0\H,31,1.09261,28,109.271,25,-53.5308,0\H,31,1.09318,28,108.634,25,-170.563,0\C,31,1.52732,28,113.42,25,68.6541,0\H,34,1.09117,31,109.81,28,-63.1798,0\H,34,1.0926,31,109.193,28,54.7813,0\C,34,1.52397,31,111.557,28,175.773,0\H,37,1.08762,34,110.665,31,179.862,0\H,37,1.08797,34,110.479,31,59.8336,0\H,37,1.08809,34,110.6,31,-60.0206,0\C,19,1.5331,1,110.786,2,104.296,0\H,41,1.09229,19,109.233,1,59.8861,0\H,41,1.09303,19,108.271,1,-56.8882,0\C,41,1.52825,19,113.205,1,-177.854,0\H,44,1.09286,41,109.429,19,53.665,0\H,44,1.09308,41,108.476,19,170.632,0\C,44,1.52722,41,113.361,19,-68.6984,0\H,47,1.09165,44,109.909,41,64.3563,0\H,47,1.0929,44,109.188,41,-53.7164,0\C,47,1.52698,44,111.869,41,-174.753,0\H,50,1.09256,47,109.299,44,59.1629,0\H,50,1.0926,47,109.229,44,-58.2782,0\C,50,1.52379,47,111.879,44,-179.542,0\H,53,1.08757,50,110.671,47,-179.828,0\H,53,1.08799,50,110.505,47,-59.7662,0\H,53,1.08804,50,110.553,47,60.1035,0\\\@

 Total job time:  114.83s(wall), 114.51s(cpu) 
 Mon Feb  7 09:22:06 2022

        *************************************************************
        *                                                           *
        *  Thank you very much for using Q-Chem.  Have a nice day.  *
        *                                                           *
        *************************************************************


