24
 energy: -42.130420138085 gnorm: 0.000074537479 xtb: 6.5.0 (unknown)
C           -3.80433498860000        2.50647484020000        0.01403533450000
C           -2.49454650370000        2.28926865120000       -0.00246444070000
C           -1.82361075060000        0.99565646270000       -0.00195271460000
C           -2.50498727030000       -0.21997965480000       -0.00396446330000
C           -1.82261279430000       -1.42090837740000       -0.00259127260000
C           -0.43329469380000       -1.45022607950000        0.00090200940000
O            0.30724140220000       -2.59187063880000        0.00255726990000
C           -0.35518162330000       -3.83319886130000        0.00257761470000
C            0.28209219180000       -0.23175119480000        0.00210992270000
C            1.73408144920000       -0.29808101620000        0.00588052090000
C            2.60752598530000        0.69665244360000       -0.00186021950000
F            2.36920250990000        2.00534296270000       -0.01558773990000
F            3.92749537080000        0.50526080900000        0.00310810130000
C           -0.43009807720000        0.96093672290000        0.00033265790000
H           -4.20417088540000        3.50576288680000        0.01254288050000
H           -4.52968741120000        1.71118250500000        0.03025745340000
H           -1.82356454940000        3.13928950310000       -0.01645006800000
H           -3.58326546060000       -0.23729368340000       -0.00746433320000
H           -2.38840683660000       -2.33921464790000       -0.00441781710000
H            0.43290468770000       -4.58475968620000        0.00529729870000
H           -0.97172612510000       -3.96054788140000       -0.89270524600000
H           -0.97585806870000       -3.95831445810000        0.89530880170000
H            2.15789849810000       -1.29071589750000        0.01559388170000
H            0.10676754890000        1.89579984970000        0.00169974830000
