
Running Job 1 of 1 tidas/B036/conf-2/spe_input.inp
qchem tidas/B036/conf-2/spe_input.inp_147525.0 /home/a/aspuru/seifridm/acdc_laser/descriptor_computation/qchem147525/ 0
/gpfs/fs1/scinet/niagara/software/commercial/qc54/exe/qcprog.exe_s tidas/B036/conf-2/spe_input.inp_147525.0 /home/a/aspuru/seifridm/acdc_laser/descriptor_computation/qchem147525/
                  Welcome to Q-Chem
     A Quantum Leap Into The Future Of Chemistry


 Q-Chem 5.4, Q-Chem, Inc., Pleasanton, CA (2021)

 License issued to: SRG Alan Aspuru-Guzik, University of Toronto

 E. Epifanovsky,  A. T. B. Gilbert,  Xintian Feng,  Joonho Lee,  Yuezhi Mao,  
 N. Mardirossian,  P. Pokhilko,  A. White,  M. Wormit,  M. P. Coons,  
 A. L. Dempwolff,  Zhengting Gan,  D. Hait,  P. R. Horn,  L. D. Jacobson,  
 I. Kaliman,  J. Kussmann,  A. W. Lange,  Ka Un Lao,  D. S. Levine,  Jie Liu,  
 S. C. McKenzie,  A. F. Morrison,  K. Nanda,  F. Plasser,  D. R. Rehn,  
 M. L. Vidal,  Zhi-Qiang You,  Ying Zhu,  B. Alam,  B. Albrecht,  
 A. Aldossary,  E. Alguire,  J. H. Andersen,  D. Barton,  K. Begam,  A. Behn,  
 Y. A. Bernard,  E. J. Berquist,  H. Burton,  A. Carreras,  K. Carter-Fenk,  
 Romit Chakraborty,  A. D. Chien,  K. D. Closser,  V. Cofer-Shabica,  
 S. Dasgupta,  Jia Deng,  M. de Wergifosse,  M. Diedenhofen,  Hainam Do,  
 S. Ehlert,  Po-Tung Fang,  S. Fatehi,  Qingguo Feng,  T. Friedhoff,  
 J. Gayvert,  Qinghui Ge,  G. Gidofalvi,  M. Goldey,  J. Gomes,  
 C. Gonzalez-Espinoza,  S. Gulania,  A. Gunina,  M. W. D. Hanson-Heine,  
 P. H. P. Harbach,  A. W. Hauser,  M. F. Herbst,  M. Hernandez Vera,  
 M. Hodecker,  Z. C. Holden,  S. Houck,  Xunkun Huang,  Kerwin Hui,  
 B. C. Huynh,  M. Ivanov,  Hyunjun Ji,  Hanjie Jiang,  B. Kaduk,  S. Kaehler,  
 K. Khistyaev,  Jaehoon Kim,  P. Klunzinger,  Z. Koczor-Benda,  
 Joong Hoon Koh,  D. Kosenkov,  L. Koulias,  T. Kowalczyk,  C. M. Krauter,  
 K. Kue,  A. Kunitsa,  T. Kus,  A. Landau,  K. V. Lawler,  D. Lefrancois,  
 S. Lehtola,  Rain Li,  Yi-Pei Li,  Jiashu Liang,  M. Liebenthal,  
 Hung-Hsuan Lin,  You-Sheng Lin,  Fenglai Liu,  Kuan-Yu Liu,  
 M. Loipersberger,  A. Luenser,  A. Manjanath,  P. Manohar,  E. Mansoor,  
 S. F. Manzer,  Shan-Ping Mao,  A. V. Marenich,  T. Markovich,  S. Mason,  
 S. A. Maurer,  P. F. McLaughlin,  M. F. S. J. Menger,  J.-M. Mewes,  
 S. A. Mewes,  P. Morgante,  J. W. Mullinax,  K. J. Oosterbaan,  G. Paran,  
 Alexander C. Paul,  Suranjan K. Paul,  F. Pavosevic,  Zheng Pei,  S. Prager,  
 E. I. Proynov,  E. Ramos,  B. Rana,  A. E. Rask,  A. Rettig,  R. M. Richard,  
 F. Rob,  E. Rossomme,  T. Scheele,  M. Scheurer,  M. Schneider,  
 N. Sergueev,  S. M. Sharada,  W. Skomorowski,  D. W. Small,  C. J. Stein,  
 Yu-Chuan Su,  E. J. Sundstrom,  Zhen Tao,  J. Thirman,  T. Tsuchimochi,  
 N. M. Tubman,  S. P. Veccham,  O. Vydrov,  J. Wenzel,  J. Witte,  A. Yamada,  
 Kun Yao,  S. Yeganeh,  S. R. Yost,  A. Zech,  Igor Ying Zhang,  Xing Zhang,  
 Yu Zhang,  D. Zuev,  A. Aspuru-Guzik,  A. T. Bell,  N. A. Besley,  
 K. B. Bravaya,  B. R. Brooks,  D. Casanova,  Jeng-Da Chai,  S. Coriani,  
 C. J. Cramer,  A. E. DePrince, III,  R. A. DiStasio Jr.,  A. Dreuw,  
 B. D. Dunietz,  T. R. Furlani,  W. A. Goddard III,  S. Grimme,  
 S. Hammes-Schiffer,  T. Head-Gordon,  W. J. Hehre,  Chao-Ping Hsu,  
 T.-C. Jagau,  Yousung Jung,  A. Klamt,  Jing Kong,  D. S. Lambrecht,  
 WanZhen Liang,  N. J. Mayhall,  C. W. McCurdy,  J. B. Neaton,  T. Neudecker,  
 C. Ochsenfeld,  J. A. Parkhill,  R. Peverati,  V. A. Rassolov,  Yihan Shao,  
 L. V. Slipchenko,  R. P. Steele,  J. E. Subotnik,  A. J. W. Thom,  
 A. Tkatchenko,  D. G. Truhlar,  T. Van Voorhis,  T. A. Wesolowski,  
 K. B. Whaley,  H. L. Woodcock III,  P. M. Zimmerman,  S. Faraji,  
 P. M. W. Gill,  M. Head-Gordon,  J. M. Herbert,  A. I. Krylov

 Additional authors since Version 5.4.0: 
 Chandrima Chakravarty,  L. Cunha,  R. Kang,  Yongbin Kim,  S. Kotaru,  
 Shaozhi Li,  Xiangyuan Li,  F. Matz,  A. Molle,  V. Parravicini,  
 Haisheng Ren,  Hengyuan Shen,  Yingli Su,  Hung-Yi Tsai,  C. Utku,  
 Fang Wang,  Jeff Yang,  F. Zeller

 Contributors to earlier versions of Q-Chem not listed above: 
 R. D. Adamson,  B. Austin,  R. Baer,  J. Baker,  G. J. O. Beran,  
 K. Brandhorst,  S. T. Brown,  E. F. C. Byrd,  Arup K. Chakraborty,  
 G. K. L. Chan,  Chun-Min Chang,  Yunqing Chen,  C.-L. Cheng,  
 Siu Hung Chien,  D. M. Chipman,  D. L. Crittenden,  H. Dachsel,  
 R. J. Doerksen,  A. D. Dutoi,  R. G. Edgar,  J. Fosso-Tande,  
 L. Fusti-Molnar,  D. Ghosh,  A. Ghysels,  A. Golubeva-Zadorozhnaya,  
 J. Gonthier,  M. S. Gordon,  S. R. Gwaltney,  G. Hawkins,  J. E. Herr,  
 A. Heyden,  S. Hirata,  E. G. Hohenstein,  G. Kedziora,  F. J. Keil,  
 C. Kelley,  Jihan Kim,  R. A. King,  R. Z. Khaliullin,  P. P. Korambath,  
 W. Kurlancheek,  A. Laurent,  A. M. Lee,  M. S. Lee,  S. V. Levchenko,  
 Ching Yeh Lin,  D. Liotard,  E. Livshits,  R. C. Lochan,  I. Lotan,  
 L. A. Martinez-Martinez,  P. E. Maslen,  N. Nair,  D. P. O'Neill,  
 D. Neuhauser,  E. Neuscamman,  C. M. Oana,  R. Olivares-Amaya,  R. Olson,  
 T. M. Perrine,  B. Peters,  P. A. Pieniazek,  A. Prociuk,  Y. M. Rhee,  
 J. Ritchie,  M. A. Rohrdanz,  E. Rosta,  N. J. Russ,  H. F. Schaefer III,  
 M. W. Schmidt,  N. E. Schultz,  S. Sharma,  N. Shenvi,  C. D. Sherrill,  
 A. C. Simmonett,  A. Sodt,  T. Stein,  D. Stuck,  K. S. Thanthiriwatte,  
 V. Vanovschi,  L. Vogt,  Tao Wang,  A. Warshel,  M. A. Watson,  
 C. F. Williams,  Q. Wu,  X. Xu,  Jun Yang,  W. Zhang,  Yan Zhao

   Please cite Q-Chem as follows:
  "Software for the frontiers of quantum chemistry:
   An overview of developments in the Q-Chem 5 package"
   J. Chem. Phys. 155, 084801 (2021)
   https://doi.org/10.1063/5.0055522 (open access)

 Q-Chem 5.4.2 for Intel X86 EM64T Linux

 Parts of Q-Chem use Armadillo 9.900.5 (Nocturnal Misbehaviour).
 http://arma.sourceforge.net/

 Q-Chem begins on Fri Aug 12 13:12:33 2022  

 Host: 
0

     Scratch files written to /home/a/aspuru/seifridm/acdc_laser/descriptor_computation/qchem147525//
 Dec1321 |scratch|qcdevops|jenkins|workspace|build_RNUM 6959   
 Processing $rem in /gpfs/fs1/scinet/niagara/software/commercial/qc54/config/preferences:
 Processing $rem in /home/a/aspuru/seifridm/.qchemrc:

 Checking the input file for inconsistencies... 	...done.

--------------------------------------------------------------
User input:
--------------------------------------------------------------
$molecule
0 1
C           -3.59270725060000       -2.82656162780000       -0.29402499210000
C           -3.55459521940000       -1.52267174100000       -0.04579048210000
C           -2.37545252290000       -0.66747087480000       -0.03655794730000
C           -2.51658455190000        0.68410475490000        0.27598251750000
C           -1.43399172020000        1.54146101690000        0.28083318020000
C           -0.15742982050000        1.07303455090000       -0.01211166570000
O            0.94914520030000        1.85229945760000       -0.08805606870000
C            0.83841437290000        3.22625788550000        0.19235046200000
C            0.01349044250000       -0.29590050490000       -0.29893939020000
C            1.32696515270000       -0.86410230410000       -0.59771966110000
C            2.47079261720000       -0.56177043960000       -0.00782577950000
F            2.67401107820000        0.27253324120000        0.99973534210000
F            3.63194918290000       -1.13297210770000       -0.33530484700000
C           -1.09372929480000       -1.12993222830000       -0.32823110630000
H           -4.52101752130000       -3.37103047550000       -0.27639464660000
H           -2.71391648620000       -3.40452179970000       -0.52220394900000
H           -4.48038836460000       -1.00713100020000        0.17976274120000
H           -3.49583088170000        1.07595277500000        0.51089629480000
H           -1.59330160440000        2.58275219930000        0.51204643810000
H            1.84484610500000        3.62681994620000        0.08392177540000
H            0.49012324070000        3.40005622670000        1.21494446870000
H            0.16939400920000        3.72841242070000       -0.51413368310000
H            1.36988287450000       -1.63502843250000       -1.35299619480000
H           -0.94036632450000       -2.16993099720000       -0.57030231000000
$end

$rem
BASIS = 6-31G*
GUI = 2
METHOD = B3LYP
PRINT_ORBITALS false
MOLDEN_FORMAT false
$end
--------------------------------------------------------------
 ----------------------------------------------------------------
             Standard Nuclear Orientation (Angstroms)
    I     Atom           X                Y                Z
 ----------------------------------------------------------------
    1      C       4.2221543082    -1.5995431944    -0.0606980754
    2      C       3.7654496246    -0.3553268371    -0.1416191739
    3      C       2.3771204837     0.0753733677    -0.0474343021
    4      C       2.0729927078     1.4292033612    -0.1853006112
    5      C       0.7756885994     1.8920705894    -0.0860710408
    6      C      -0.2762621512     1.0103707092     0.1394400675
    7      O      -1.5687321887     1.3823515844     0.3087948858
    8      C      -1.9075885779     2.7436595234     0.2055091519
    9      C       0.0041703284    -0.3661170708     0.2494677127
   10      C      -1.0510742541    -1.3540777900     0.4679425112
   11      C      -2.2524080342    -1.3613696019    -0.0838405934
   12      F      -2.7449069105    -0.5187568298    -0.9782612784
   13      F      -3.1612419780    -2.3072534764     0.1633900964
   14      C       1.3183468937    -0.8022021818     0.1775497161
   15      H       5.2735909266    -1.8144661992    -0.1431980953
   16      H       3.5795952501    -2.4499890737     0.0884208954
   17      H       4.4723738410     0.4510359791    -0.2958482909
   18      H       2.8693064924     2.1373732850    -0.3642767088
   19      H       0.5896836894     2.9500013652    -0.1825655147
   20      H      -2.9843877790     2.7873893512     0.3594661544
   21      H      -1.6692044542     3.1422102307    -0.7852185715
   22      H      -1.4061845482     3.3424122983     0.9729440906
   23      H      -0.8210909275    -2.1845824615     1.1190809979
   24      H       1.5099754457    -1.8583499426     0.2850044187
 ----------------------------------------------------------------
 Molecular Point Group                 C1    NOp =  1
 Largest Abelian Subgroup              C1    NOp =  1
 Nuclear Repulsion Energy =         859.77307998 hartrees
 There are       51 alpha and       51 beta electrons
 Requested basis set is 6-31G(d)
 There are 76 shells and 230 basis functions

 Total QAlloc Memory Limit   8000 MB
 Mega-Array Size       188 MB
 MEM_STATIC part       192 MB
 A cutoff of  1.0D-08 yielded   1883 shell pairs
 There are     18670 function pairs
 Smallest overlap matrix eigenvalue = 3.39E-04

 Scale SEOQF with 1.000000e-02/1.000000e-01/1.000000e+00

 Standard Electronic Orientation quadrupole field applied
 Nucleus-field energy     =     0.0000000035 hartrees
 Guess from superposition of atomic densities
 Warning:  Energy on first SCF cycle will be non-variational
 SAD guess density has 102.000000 electrons

 -----------------------------------------------------------------------
  General SCF calculation program by
  Eric Jon Sundstrom, Paul Horn, Yuezhi Mao, Dmitri Zuev, Alec White,
  David Stuck, Shaama M.S., Shane Yost, Joonho Lee, David Small,
  Daniel Levine, Susi Lehtola, Hugh Burton, Evgeny Epifanovsky,
  Bang C. Huynh
 -----------------------------------------------------------------------
 Exchange:     0.2000 Hartree-Fock + 0.0800 Slater + 0.7200 B88
 Correlation:  0.1900 VWN1RPA + 0.8100 LYP
 Using SG-1 standard quadrature grid
 A restricted SCF calculation will be
 performed using DIIS
 SCF converges when DIIS error is below 1.0e-05
 ---------------------------------------
  Cycle       Energy         DIIS error
 ---------------------------------------
    1    -703.1486667372      5.26e-02  
    2    -699.8098515706      5.78e-03  
    3    -699.6534414446      7.54e-03  
    4    -700.0157585613      1.58e-03  
    5    -700.0319689287      4.65e-04  
    6    -700.0330878278      2.17e-04  
    7    -700.0333854351      4.03e-05  
    8    -700.0333946573      1.81e-05  
    9    -700.0333971687      5.10e-06  Convergence criterion met
 ---------------------------------------
 SCF time:   CPU 56.89s  wall 59.00s 
 SCF   energy in the final basis set =     -700.0333971687
 Total energy in the final basis set =     -700.0333971687
 
 --------------------------------------------------------------
 
                    Orbital Energies (a.u.)
 --------------------------------------------------------------
 
 Alpha MOs
 -- Occupied --
-24.7284 -24.7242 -19.1823 -10.3470 -10.2503 -10.2433 -10.2011 -10.1938
-10.1894 -10.1888 -10.1879 -10.1876 -10.1869 -10.1746  -1.2731  -1.2122
 -1.0749  -0.8672  -0.8097  -0.7829  -0.7428  -0.7381  -0.6972  -0.6383
 -0.6163  -0.6015  -0.5677  -0.5617  -0.5392  -0.5119  -0.5049  -0.4913
 -0.4765  -0.4661  -0.4538  -0.4406  -0.4308  -0.4277  -0.4225  -0.4064
 -0.4015  -0.3941  -0.3857  -0.3578  -0.3492  -0.3381  -0.3269  -0.2887
 -0.2742  -0.2292  -0.2030
 -- Virtual --
 -0.0227  -0.0157   0.0475   0.0814   0.0937   0.1032   0.1092   0.1225
  0.1306   0.1507   0.1540   0.1647   0.1674   0.1833   0.1886   0.2059
  0.2130   0.2297   0.2550   0.2931   0.3090   0.3328   0.3473   0.3677
  0.4123   0.4226   0.4385   0.4709   0.4970   0.5015   0.5134   0.5256
  0.5338   0.5416   0.5445   0.5661   0.5676   0.5760   0.5855   0.5885
  0.6031   0.6057   0.6139   0.6264   0.6293   0.6411   0.6700   0.6763
  0.6946   0.7073   0.7172   0.7599   0.7761   0.8070   0.8235   0.8340
  0.8469   0.8543   0.8605   0.8652   0.8915   0.8932   0.9165   0.9288
  0.9490   0.9637   0.9800   0.9889   1.0013   1.0113   1.0206   1.0357
  1.0480   1.0816   1.1052   1.1231   1.1341   1.1849   1.1938   1.2088
  1.2266   1.2511   1.2542   1.2992   1.3150   1.3224   1.3607   1.3716
  1.3779   1.4010   1.4154   1.4342   1.4566   1.4684   1.4711   1.4899
  1.5031   1.5162   1.5330   1.5660   1.5986   1.6423   1.6811   1.7020
  1.7230   1.7667   1.7862   1.7976   1.8155   1.8323   1.8439   1.8654
  1.8767   1.9055   1.9217   1.9357   1.9549   1.9706   1.9936   1.9947
  2.0098   2.0248   2.0321   2.0651   2.0740   2.0857   2.1198   2.1284
  2.1388   2.1474   2.1596   2.2144   2.2288   2.2429   2.2607   2.2758
  2.2860   2.3242   2.3635   2.3770   2.4063   2.4283   2.4985   2.5261
  2.5300   2.5700   2.5877   2.6046   2.6365   2.6645   2.6893   2.6962
  2.7260   2.7708   2.8137   2.8837   2.9016   2.9569   3.0026   3.0429
  3.0904   3.1447   3.1855   3.3263   3.4862   4.0623   4.0949   4.1105
  4.1196   4.1476   4.1964   4.2640   4.2826   4.3450   4.5031   4.5349
  4.7617   4.8848   5.2806
 --------------------------------------------------------------
 
          Ground-State Mulliken Net Atomic Charges

     Atom                 Charge (a.u.)
  ----------------------------------------
      1 C                    -0.357089
      2 C                    -0.115283
      3 C                     0.184228
      4 C                    -0.205404
      5 C                    -0.194581
      6 C                     0.330102
      7 O                    -0.504254
      8 C                    -0.216313
      9 C                     0.129849
     10 C                    -0.315845
     11 C                     0.570678
     12 F                    -0.231835
     13 F                    -0.254209
     14 C                    -0.257409
     15 H                     0.141447
     16 H                     0.139798
     17 H                     0.123666
     18 H                     0.128350
     19 H                     0.132401
     20 H                     0.173114
     21 H                     0.154367
     22 H                     0.152307
     23 H                     0.163762
     24 H                     0.128152
  ----------------------------------------
  Sum of atomic charges =     0.000000

 -----------------------------------------------------------------
                    Cartesian Multipole Moments
 -----------------------------------------------------------------
    Charge (ESU x 10^10)
                 0.0000
    Dipole Moment (Debye)
         X       0.4795      Y       1.8707      Z       0.2624
       Tot       1.9489
    Quadrupole Moments (Debye-Ang)
        XX     -78.8197     XY      -4.4477     YY     -68.4109
        XZ      -1.0950     YZ      -1.4869     ZZ     -82.0436
    Octopole Moments (Debye-Ang^2)
       XXX     -33.3899    XXY      14.0318    XYY     -18.9214
       YYY       8.2465    XXZ      -3.7942    XYZ      -2.7566
       YYZ       0.7675    XZZ     -26.8835    YZZ      -5.1566
       ZZZ      -5.1409
    Hexadecapole Moments (Debye-Ang^3)
      XXXX   -2591.8207   XXXY       8.1340   XXYY    -613.5339
      XYYY       2.8092   YYYY   -1120.9261   XXXZ     -10.7261
      XXYZ      -0.9852   XYYZ       3.0960   YYYZ      -3.5642
      XXZZ    -502.7488   XYZZ      23.8221   YYZZ    -223.1486
      XZZZ      18.6452   YZZZ       1.6507   ZZZZ    -136.6277
 -----------------------------------------------------------------
 Total job time:  59.41s(wall), 57.44s(cpu) 
 Fri Aug 12 13:13:32 2022

        *************************************************************
        *                                                           *
        *  Thank you very much for using Q-Chem.  Have a nice day.  *
        *                                                           *
        *************************************************************


