35
 energy: -43.370856475563 gnorm: 0.000036322667 xtb: 6.4.1 (23d549d)
C        -1.90360111840000   -3.43131760860000    0.60693178800000
C        -2.42802141150000   -2.35960812780000    0.01701123070000
C        -1.87243643960000   -1.03379414970000    0.05979826480000
C        -0.75010740910000   -0.56624182970000    0.69388948200000
C        -0.49676806340000    0.80614162380000    0.50642101210000
C         0.69966953060000    1.46423269160000    1.11823357670000
C         1.88829763980000    1.50948497450000    0.14569260810000
C         2.39144964200000    0.12936977580000   -0.27997905790000
C         3.09724476230000   -0.63064058950000    0.84135985690000
C         3.49630150540000   -2.05156139100000    0.44080753660000
C         4.59026344290000   -2.09435550610000   -0.61954304280000
C        -1.44881683570000    1.41270799600000   -0.28865814020000
C        -1.65035741360000    2.76562881040000   -0.73820902390000
C        -0.82157863280000    3.80473352330000   -0.66077333650000
S        -2.65799436000000    0.25849991850000   -0.78867696030000
H        -2.37391028000000   -4.39579941910000    0.53359225650000
H        -0.99379220510000   -3.38337627850000    1.17979246220000
H        -3.34428389550000   -2.45290989740000   -0.55171260850000
H        -0.11647729990000   -1.19489792130000    1.29400830280000
H         0.98487388220000    0.90880931890000    2.01318694110000
H         0.44627156920000    2.47944054820000    1.42806486280000
H         2.70591893240000    2.06153544910000    0.61588386770000
H         1.58522971110000    2.05452791260000   -0.75097719070000
H         3.08686895200000    0.26479229990000   -1.11022634270000
H         1.55016420860000   -0.46272586430000   -0.64704003050000
H         2.43703992300000   -0.69429720990000    1.70860647860000
H         3.98883320910000   -0.07788864220000    1.14786758090000
H         2.61448653950000   -2.58152404890000    0.07220125270000
H         3.85014007880000   -2.57796340670000    1.33106403160000
H         4.24297019610000   -1.66854998600000   -1.55713696280000
H         4.89327841490000   -3.12208005430000   -0.80717464560000
H         5.46288652760000   -1.53518875710000   -0.28827917130000
H        -2.61563903870000    2.91658524460000   -1.20825803510000
H         0.16495555430000    3.75172903910000   -0.24070973630000
H        -1.12252669480000    4.76698746220000   -1.03851729790000
