26
 energy: -48.712633129635 gnorm: 0.000045072910 xtb: 6.5.0 (unknown)
C            1.90412755260000       -3.82292991800000       -0.41434134170000
C            1.13039127870000       -3.20037371960000        0.46274002480000
C            0.73790145400000       -1.78908224380000        0.38756038210000
C           -0.59079437450000       -1.48150152650000        0.55126160450000
C           -1.09300044140000       -0.17280001830000        0.40563160920000
C           -2.52650619250000        0.05173146600000        0.56674946190000
C           -3.26854432780000        0.90580846370000       -0.12023303440000
F           -2.88824713760000        1.68762226560000       -1.11526502500000
F           -4.57672005560000        1.05345090040000        0.07890505650000
C           -0.18970579850000        0.82939216950000        0.13345446230000
F           -0.61173024820000        2.10677677970000        0.04176987270000
C            1.19405971900000        0.58818427970000        0.00584496370000
C            2.10193411160000        1.63997922030000       -0.23982108030000
C            3.44250652500000        1.39176526800000       -0.32599285700000
C            3.92720899140000        0.08892176210000       -0.14508894720000
C            3.06655250450000       -0.94968104160000        0.08537337870000
C            1.67328450250000       -0.74275559050000        0.14163289570000
H            2.12492690420000       -4.87307418330000       -0.32506926080000
H            2.32407153060000       -3.31550921010000       -1.26678920580000
H            0.67890992050000       -3.75963444900000        1.27313563230000
H           -1.29562562400000       -2.27371890120000        0.75863104100000
H           -3.04079447670000       -0.55677596960000        1.29534409380000
H            1.71437193670000        2.64124495450000       -0.35155505330000
H            4.13492676850000        2.19794897020000       -0.51588609080000
H            4.99157983010000       -0.09053351690000       -0.18163183380000
H            3.45319630960000       -1.94335627300000        0.24835755930000
