23
 energy: -38.064628281477 gnorm: 0.000048688652 xtb: 6.5.0 (unknown)
C           -4.60698104130000        0.14351893480000       -0.74005492080000
C           -3.82816078190000       -0.56681060920000        0.06721459530000
C           -2.38879102010000       -0.41859605900000        0.24025117480000
C           -1.69440411690000       -1.36678014330000        0.99479362670000
C           -0.33321185690000       -1.26090524630000        1.16886816420000
C            0.39179458080000       -0.21892956680000        0.58824484220000
C            1.83877731680000       -0.20880759710000        0.81416419170000
C            2.78163472220000       -0.00971732700000       -0.08962571580000
F            2.62119084410000        0.21626412480000       -1.38803562910000
F            4.08638554000000       -0.04062528660000        0.18581470580000
C           -0.29180948300000        0.76446864710000       -0.13754676660000
C            0.40044651870000        1.96260991880000       -0.71119056430000
C           -1.66394643110000        0.64206516460000       -0.29743060000000
H           -5.66490912120000       -0.04471328030000       -0.80465210980000
H           -4.23021802140000        0.92998145410000       -1.37121024830000
H           -4.27172324240000       -1.35645056350000        0.66186757720000
H           -2.23071837050000       -2.19032892100000        1.44360452250000
H            0.19363075730000       -2.00410736130000        1.74995133000000
H            2.18184895120000       -0.45125452180000        1.80998284480000
H            1.24827345880000        2.25987400270000       -0.09759949560000
H           -0.29129023000000        2.79899075700000       -0.78071979920000
H            0.76802772580000        1.74690701210000       -1.71383980170000
H           -2.18259141370000        1.41028429500000       -0.85061123980000
