23
 energy: -50.742572445494 gnorm: 0.000038419651 xtb: 6.5.0 (unknown)
C            3.13745085390000       -1.86550933850000       -0.72818885480000
C            2.24536546780000       -1.90976842760000        0.24938497070000
C            0.92780747850000       -1.26811805010000        0.19989206500000
C           -0.18056059030000       -2.02805642790000        0.57102200270000
C           -1.46695527320000       -1.54151129670000        0.45160419640000
C           -1.65823834740000       -0.26303615110000       -0.05418501830000
C           -3.03581050350000        0.31184449000000       -0.21623636860000
F           -4.01182710500000       -0.58316331760000       -0.01883670800000
F           -3.26766991540000        1.32243729180000        0.64449266590000
F           -3.23037499850000        0.82454569240000       -1.44529812970000
C           -0.57104772290000        0.52498750840000       -0.39835891750000
C            0.72681930440000        0.04445701290000       -0.25582857880000
C            1.82149668740000        0.97109058710000       -0.55870078200000
C            2.88869594400000        1.16167203220000        0.19725109670000
F            3.17976568930000        0.53656917750000        1.32897003480000
F            3.84315870810000        2.04343675000000       -0.07746746250000
H            4.07198872530000       -2.39469915590000       -0.66186187270000
H            2.96311728990000       -1.31120321860000       -1.63583794140000
H            2.43322621710000       -2.50902983630000        1.13030227450000
H           -0.02426609150000       -3.03026982150000        0.94065906600000
H           -2.31350626420000       -2.14675026360000        0.73535152700000
H           -0.73410576610000        1.52755312470000       -0.76502885890000
H            1.71244642990000        1.61139986270000       -1.42089403050000
