
Running Job 1 of 1 fragments/B002/conf-3/spe_input.inp
qchem fragments/B002/conf-3/spe_input.inp_342042.0 /gpfs/fs0/scratch/a/aspuru/rhickman/descriptor_computation/qchem342042/ 0
/scinet/niagara/software/commercial/qc52/exe/qcprog.exe_s fragments/B002/conf-3/spe_input.inp_342042.0 /gpfs/fs0/scratch/a/aspuru/rhickman/descriptor_computation/qchem342042/
                  Welcome to Q-Chem
     A Quantum Leap Into The Future Of Chemistry


 Q-Chem 5.2, Q-Chem, Inc., Pleasanton, CA (2019)

 License issued to: SRG Alan Aspuru-Guzik, University of Toronto

 Yihan Shao,  Zhengting Gan,  E. Epifanovsky,  A. T. B. Gilbert,  M. Wormit,  
 J. Kussmann,  A. W. Lange,  A. Behn,  Jia Deng,  Xintian Feng,  D. Ghosh,  
 M. Goldey,  P. R. Horn,  L. D. Jacobson,  I. Kaliman,  T. Kus,  A. Landau,  
 Jie Liu,  E. I. Proynov,  R. M. Richard,  R. P. Steele,  E. J. Sundstrom,  
 H. L. Woodcock III,  P. M. Zimmerman,  D. Zuev,  B. Albrecht,  E. Alguire,  
 S. A. Baeppler,  D. Barton,  Z. Benda,  Y. A. Bernard,  E. J. Berquist,  
 K. B. Bravaya,  H. Burton,  D. Casanova,  Chun-Min Chang,  Yunqing Chen,  
 A. Chien,  K. D. Closser,  M. P. Coons,  S. Coriani,  S. Dasgupta,  
 A. L. Dempwolff,  M. Diedenhofen,  Hainam Do,  R. G. Edgar,  Po-Tung Fang,  
 S. Faraji,  S. Fatehi,  Qingguo Feng,  K. D. Fenk,  J. Fosso-Tande,  
 J. Gayvert,  Qinghui Ge,  A. Ghysels,  G. Gidofalvi,  J. Gomes,  
 J. Gonthier,  A. Gunina,  D. Hait,  M. W. D. Hanson-Heine,  
 P. H. P. Harbach,  A. W. Hauser,  M. F. Herbst,  J. E. Herr,  
 E. G. Hohenstein,  Z. C. Holden,  Kerwin Hui,  B. C. Huynh,  T.-C. Jagau,  
 Hyunjun Ji,  B. Kaduk,  K. Khistyaev,  Jaehoon Kim,  P. Klunzinger,  K. Koh,  
 D. Kosenkov,  L. Koulias,  T. Kowalczyk,  C. M. Krauter,  A. Kunitsa,  
 Ka Un Lao,  A. Laurent,  K. V. Lawler,  Joonho Lee,  D. Lefrancois,  
 S. Lehtola,  D. S. Levine,  Yi-Pei Li,  You-Sheng Lin,  Fenglai Liu,  
 E. Livshits,  A. Luenser,  P. Manohar,  E. Mansoor,  S. F. Manzer,  
 Shan-Ping Mao,  Yuezhi Mao,  N. Mardirossian,  A. V. Marenich,  
 T. Markovich,  L. A. Martinez-Martinez,  S. A. Maurer,  N. J. Mayhall,  
 S. C. McKenzie,  J.-M. Mewes,  P. Morgante,  A. F. Morrison,  
 J. W. Mullinax,  K. Nanda,  T. S. Nguyen-Beck,  R. Olivares-Amaya,  
 J. A. Parkhill,  Zheng Pei,  T. M. Perrine,  F. Plasser,  P. Pokhilko,  
 S. Prager,  A. Prociuk,  E. Ramos,  D. R. Rehn,  F. Rob,  M. Scheurer,  
 M. Schneider,  N. Sergueev,  S. M. Sharada,  S. Sharma,  D. W. Small,  
 T. Stauch,  T. Stein,  Yu-Chuan Su,  A. J. W. Thom,  A. Tkatchenko,  
 T. Tsuchimochi,  N. M. Tubman,  L. Vogt,  M. L. Vidal,  O. Vydrov,  
 M. A. Watson,  J. Wenzel,  M. de Wergifosse,  T. A. Wesolowski,  A. White,  
 J. Witte,  A. Yamada,  Jun Yang,  K. Yao,  S. Yeganeh,  S. R. Yost,  
 Zhi-Qiang You,  A. Zech,  Igor Ying Zhang,  Xing Zhang,  Yan Zhao,  
 Ying Zhu,  B. R. Brooks,  G. K. L. Chan,  C. J. Cramer,  M. S. Gordon,  
 W. J. Hehre,  A. Klamt,  M. W. Schmidt,  C. D. Sherrill,  D. G. Truhlar,  
 A. Aspuru-Guzik,  R. Baer,  A. T. Bell,  N. A. Besley,  Jeng-Da Chai,  
 A. E. DePrince, III,  R. A. DiStasio Jr.,  A. Dreuw,  B. D. Dunietz,  
 T. R. Furlani,  Chao-Ping Hsu,  Yousung Jung,  Jing Kong,  D. S. Lambrecht,  
 WanZhen Liang,  C. Ochsenfeld,  V. A. Rassolov,  L. V. Slipchenko,  
 J. E. Subotnik,  T. Van Voorhis,  J. M. Herbert,  A. I. Krylov,  
 P. M. W. Gill,  M. Head-Gordon

 Contributors to earlier versions of Q-Chem not listed above: 
 R. D. Adamson,  B. Austin,  J. Baker,  G. J. O. Beran,  K. Brandhorst,  
 S. T. Brown,  E. F. C. Byrd,  A. K. Chakraborty,  C.-L. Cheng,  
 Siu Hung Chien,  D. M. Chipman,  D. L. Crittenden,  H. Dachsel,  
 R. J. Doerksen,  A. D. Dutoi,  L. Fusti-Molnar,  W. A. Goddard III,  
 A. Golubeva-Zadorozhnaya,  S. R. Gwaltney,  G. Hawkins,  A. Heyden,  
 S. Hirata,  G. Kedziora,  F. J. Keil,  C. Kelley,  Jihan Kim,  R. A. King,  
 R. Z. Khaliullin,  P. P. Korambath,  W. Kurlancheek,  A. M. Lee,  M. S. Lee,  
 S. V. Levchenko,  Ching Yeh Lin,  D. Liotard,  R. C. Lochan,  I. Lotan,  
 P. E. Maslen,  N. Nair,  D. P. O'Neill,  D. Neuhauser,  E. Neuscamman,  
 C. M. Oana,  R. Olson,  B. Peters,  R. Peverati,  P. A. Pieniazek,  
 Y. M. Rhee,  J. Ritchie,  M. A. Rohrdanz,  E. Rosta,  N. J. Russ,  
 H. F. Schaefer III,  N. E. Schultz,  N. Shenvi,  A. C. Simmonett,  A. Sodt,  
 D. Stuck,  K. S. Thanthiriwatte,  V. Vanovschi,  Tao Wang,  A. Warshel,  
 C. F. Williams,  Q. Wu,  X. Xu,  W. Zhang

 Please cite Q-Chem as follows:
 Y. Shao et al., Mol. Phys. 113, 184-215 (2015)
 DOI: 10.1080/00268976.2014.952696

 Q-Chem 5.2.1 for Intel X86 EM64T Linux

 Parts of Q-Chem use Armadillo 8.300.2 (Tropical Shenanigans).
 http://arma.sourceforge.net/

 Q-Chem begins on Tue Feb  8 15:40:24 2022  

Host: 
0

     Scratch files written to /gpfs/fs0/scratch/a/aspuru/rhickman/descriptor_computation/qchem342042//
 Jul1719 |scratch|qcdevops|jenkins|workspace|build_RNUM -1
Processing $rem in /scinet/niagara/software/commercial/qc52/config/preferences:
	 MEM_TOTAL  4000 
NAlpha2: 88
NElect   88
Mult     1

Checking the input file for inconsistencies... 	...done.

--------------------------------------------------------------
User input:
--------------------------------------------------------------
$molecule
0 1
C        -1.11624600670000   -2.41730320440000   -0.11560573750000
C        -1.52773642140000   -1.37249320230000    0.58851644690000
C        -1.26600555410000    0.02151144470000    0.25995975110000
C        -2.27134299280000    1.01064455500000    0.44100466260000
C        -1.91832829140000    2.23426209360000   -0.01908530290000
S        -0.33499510910000    2.24230425520000   -0.68019664370000
C        -0.13251236340000    0.54845461690000   -0.32091816380000
C         1.16222718260000   -0.02146550440000   -0.60346307950000
C         1.78469755320000   -0.96486955380000    0.08974065530000
F         1.33943309980000   -1.59875789360000    1.16574129820000
F         2.99483442250000   -1.42371371450000   -0.22368406370000
H        -1.37928600150000   -3.42200991770000    0.16466269960000
H        -0.51043212860000   -2.30815302420000   -0.99971616760000
H        -2.17161944350000   -1.51871257680000    1.44623171950000
H        -3.22810702940000    0.79384799740000    0.88187485050000
H        -2.49080854020000    3.14041478630000   -0.01146221750000
H         1.72081822180000    0.41703269860000   -1.41788237820000
$end

$rem
BASIS = 6-31G*
GUI = 2
METHOD = B3LYP
PRINT_ORBITALS false
MOLDEN_FORMAT false
--------------------------------------------------------------
 ----------------------------------------------------------------
             Standard Nuclear Orientation (Angstroms)
    I     Atom           X                Y                Z
 ----------------------------------------------------------------
    1      C       1.0293015204    -2.2724203832    -0.8534215379
    2      C       0.0403202997    -2.0881928857     0.0095481758
    3      C      -0.8154446551    -0.9120155658     0.0725938679
    4      C      -2.2081480969    -1.0410179130     0.3287197217
    5      C      -2.8872820860     0.1269857077     0.2387941788
    6      S      -1.8568761498     1.4438652194    -0.1461328346
    7      C      -0.4636227461     0.3965337040    -0.1800228873
    8      C       0.8157559013     1.0300520398    -0.3869911473
    9      C       1.9760958459     0.6724927406     0.1457137815
   10      F       2.2085647403    -0.3526210453     0.9537683487
   11      F       3.1147621415     1.3259296796    -0.0771392971
   12      H       1.5982790241    -3.1852204601    -0.8688044908
   13      H       1.3012051120    -1.5245208341    -1.5795690233
   14      H      -0.2326482129    -2.8797467928     0.6955303503
   15      H      -2.6740666541    -1.9848641305     0.5497149877
   16      H      -3.9359698457     0.3010698906     0.3761008761
   17      H       0.8214211370     1.9371564408    -0.9741137307
 ----------------------------------------------------------------
 Molecular Point Group                 C1    NOp =  1
 Largest Abelian Subgroup              C1    NOp =  1
 Nuclear Repulsion Energy =         672.95669716 hartrees
 There are       44 alpha and       44 beta electrons
 Requested basis set is 6-31G(d)
 There are 57 shells and 181 basis functions

 Total QAlloc Memory Limit   4000 MB
 Mega-Array Size       188 MB
 MEM_STATIC part       192 MB
 A cutoff of  1.0D-08 yielded   1237 shell pairs
 There are     13452 function pairs
 Smallest overlap matrix eigenvalue = 8.86E-04

 Scale SEOQF with 1.000000e-01/1.000000e-01/1.000000e-01

 Standard Electronic Orientation quadrupole field applied
 Nucleus-field energy     =     0.0000000209 hartrees
 Guess from superposition of atomic densities
 Warning:  Energy on first SCF cycle will be non-variational
 SAD guess density has 88.000000 electrons

 -----------------------------------------------------------------------
  General SCF calculation program by
  Eric Jon Sundstrom, Paul Horn, Yuezhi Mao, Dmitri Zuev, Alec White,
  David Stuck, Shaama M.S., Shane Yost, Joonho Lee, David Small,
  Daniel Levine, Susi Lehtola, Hugh Burton, Evgeny Epifanovsky,
  Bang C. Huynh
 -----------------------------------------------------------------------
 Exchange:     0.2000 Hartree-Fock + 0.0800 Slater + 0.7200 B88
 Correlation:  0.1900 VWN1RPA + 0.8100 LYP
 Using SG-1 standard quadrature grid
 A restricted SCF calculation will be
 performed using DIIS
 SCF converges when DIIS error is below 1.0e-05
 ---------------------------------------
  Cycle       Energy         DIIS error
 ---------------------------------------
    1    -908.7341152956      5.84e-02  
    2    -906.0536154439      7.00e-03  
    3    -905.7902112586      1.03e-02  
    4    -906.2498940046      1.65e-03  
    5    -906.2601739775      6.89e-04  
    6    -906.2617816658      3.13e-04  
    7    -906.2621795329      6.01e-05  
    8    -906.2621948041      2.16e-05  
    9    -906.2621967825      7.18e-06  Convergence criterion met
 ---------------------------------------
 SCF time:   CPU 21.28s  wall 22.00s 
 SCF   energy in the final basis set =     -906.2621967825
 Total energy in the final basis set =     -906.2621967825
 
 --------------------------------------------------------------
 
                    Orbital Energies (a.u.)
 --------------------------------------------------------------
 
 Alpha MOs
 -- Occupied --
-88.9092 -24.7391 -24.7347 -10.3568 -10.2269 -10.2135 -10.2091 -10.1985
-10.1918 -10.1915 -10.1791  -7.9711  -5.9350  -5.9314  -5.9281  -1.2827
 -1.2227  -0.8935  -0.8079  -0.7922  -0.7303  -0.7122  -0.6408  -0.6022
 -0.5796  -0.5679  -0.5574  -0.5177  -0.4981  -0.4839  -0.4587  -0.4423
 -0.4389  -0.4263  -0.4117  -0.4002  -0.3869  -0.3856  -0.3689  -0.3427
 -0.2942  -0.2875  -0.2389  -0.2084
 -- Virtual --
 -0.0394   0.0160   0.0227   0.0366   0.0941   0.1115   0.1186   0.1284
  0.1389   0.1457   0.1695   0.1732   0.1954   0.2105   0.2515   0.2827
  0.2960   0.3274   0.3490   0.3523   0.3764   0.4019   0.4205   0.4504
  0.4598   0.4738   0.5117   0.5260   0.5346   0.5482   0.5625   0.5713
  0.5851   0.5944   0.5964   0.6235   0.6406   0.6585   0.6785   0.6931
  0.7042   0.7521   0.7788   0.8113   0.8176   0.8434   0.8477   0.8619
  0.8724   0.8780   0.8820   0.9068   0.9327   0.9444   0.9675   0.9835
  1.0169   1.0245   1.0483   1.0772   1.0955   1.1028   1.1434   1.1508
  1.1992   1.2128   1.2396   1.2653   1.2850   1.3274   1.3722   1.3885
  1.3920   1.4127   1.4285   1.4552   1.4782   1.4950   1.5305   1.5985
  1.6261   1.6528   1.6822   1.7276   1.7591   1.7819   1.7881   1.8181
  1.8431   1.8711   1.9044   1.9241   1.9421   1.9743   1.9796   1.9972
  2.0140   2.0341   2.0508   2.1138   2.1245   2.1290   2.2059   2.2211
  2.2402   2.2756   2.2879   2.3233   2.3897   2.4075   2.4705   2.5094
  2.5292   2.5371   2.5759   2.6458   2.6841   2.7119   2.7735   2.7969
  2.8658   3.0090   3.0708   3.1119   3.1465   3.3128   3.9534   4.0877
  4.1013   4.1338   4.1858   4.2515   4.3089   4.4253   4.6412   4.7515
  5.2707
 --------------------------------------------------------------
 
          Ground-State Mulliken Net Atomic Charges

     Atom                 Charge (a.u.)
  ----------------------------------------
      1 C                    -0.334587
      2 C                    -0.119520
      3 C                     0.156609
      4 C                    -0.127102
      5 C                    -0.347572
      6 S                     0.252076
      7 C                    -0.197247
      8 C                    -0.287833
      9 C                     0.567258
     10 F                    -0.225049
     11 F                    -0.246117
     12 H                     0.143498
     13 H                     0.146828
     14 H                     0.132890
     15 H                     0.142004
     16 H                     0.173314
     17 H                     0.170552
  ----------------------------------------
  Sum of atomic charges =     0.000000

 -----------------------------------------------------------------
                    Cartesian Multipole Moments
 -----------------------------------------------------------------
    Charge (ESU x 10^10)
                 0.0000
    Dipole Moment (Debye)
         X      -1.0193      Y      -0.4121      Z      -0.1833
       Tot       1.1146
    Quadrupole Moments (Debye-Ang)
        XX     -65.3553     XY       0.2305     YY     -64.7722
        XZ      -2.7922     YZ      -1.7905     ZZ     -69.7997
    Octopole Moments (Debye-Ang^2)
       XXX       4.1770    XXY      -1.6085    XYY      13.8990
       YYY       0.8463    XXZ       4.9966    XYZ       3.6882
       YYZ       3.8073    XZZ      18.5765    YZZ       4.3198
       ZZZ       6.7463
    Hexadecapole Moments (Debye-Ang^3)
      XXXX   -1383.0762   XXXY      -1.1577   XXYY    -369.3047
      XYYY      21.4590   YYYY    -772.4008   XXXZ      -6.0183
      XXYZ       1.1910   XYYZ      -5.3877   YYYZ     -21.9928
      XXZZ    -278.1962   XYZZ       9.0349   YYZZ    -161.6546
      XZZZ      15.7454   YZZZ      -6.7076   ZZZZ    -155.4088
 -----------------------------------------------------------------
Archival summary:
1\1\nia2015.scinet.local\SP\ProcedureUnspecified\6-31G*\1286\rhickman\TueFeb815:40:462022TueFeb815:40:462022\0\\#,ProcedureUnspecified,6-31G*,\\0,1\S\C,1,1.71583\H,2,1.07187,1,119.448\C,2,1.35408,1,112.069,3,-179.932,0\H,4,1.07553,2,123.597,1,-179.261,0\C,4,1.42192,2,113.642,1,-0.621247,0\C,6,1.37837,4,111.663,2,1.51166,0\C,7,1.44256,6,132.035,4,174.558,0\H,8,1.08055,7,116.826,6,153.998,0\C,8,1.3259,7,126.875,6,-31.2284,0\F,10,1.32584,8,127.359,7,1.50807,0\F,10,1.33162,8,123.282,7,-178.772,0\C,6,1.45592,4,120.678,2,-174.442,0\H,13,1.08242,6,114.526,4,-35.2112,0\C,13,1.32542,6,125.385,4,140.372,0\H,15,1.07572,13,121.461,6,-177.548,0\H,15,1.0773,13,122.052,6,1.92804,0\\\@

 Total job time:  21.52s(wall), 21.44s(cpu) 
 Tue Feb  8 15:40:46 2022

        *************************************************************
        *                                                           *
        *  Thank you very much for using Q-Chem.  Have a nice day.  *
        *                                                           *
        *************************************************************


