24
 energy: -37.670742531027 gnorm: 0.000035587916 xtb: 6.4.1 (23d549d)
C         3.93866183220000    0.60775508950000    0.40545254920000
C         3.19478527510000   -0.34759257990000   -0.13917024240000
C         1.75127732390000   -0.40361181850000   -0.14100702690000
N         1.13185627360000   -1.60082721730000   -0.29729297170000
N        -0.19658761890000   -1.52757995700000   -0.19771045200000
C        -0.46323599710000   -0.24889608970000    0.01900507550000
N        -1.72945017050000    0.27231722830000    0.15714667210000
C        -2.95837338560000   -0.33623049830000    0.12894732120000
C        -2.96508035060000   -1.81949138460000   -0.08702648710000
O        -3.95263957310000    0.34032697030000    0.27736897240000
C         0.73125310690000    0.52684350160000    0.06187149870000
C         0.76940211890000    1.96892857890000    0.21800598510000
C         1.60199022100000    2.78682818540000   -0.41170335820000
H         5.01326410640000    0.55695188020000    0.38535664480000
H         3.50085976460000    1.46094337830000    0.89252313970000
H         3.67255655580000   -1.20750311950000   -0.59531417050000
H         1.56835067180000   -2.49874259390000   -0.42955162690000
H        -1.76739962860000    1.27514277900000    0.29602794560000
H        -2.48413543130000   -2.05579009630000   -1.03231034400000
H        -3.99169196300000   -2.17408295470000   -0.08662246930000
H        -2.39589788320000   -2.30918566690000    0.69844070220000
H         0.01471227560000    2.38083307910000    0.87946874540000
H         2.34605233480000    2.42051026120000   -1.09832565930000
H         1.56168082380000    3.85237363790000   -0.26546320620000
