
Running Job 1 of 1 fragments/B019/conf-2/spe_input.inp
qchem fragments/B019/conf-2/spe_input.inp_158755.0 /gpfs/fs0/scratch/a/aspuru/rhickman/descriptor_computation/qchem158755/ 0
/scinet/niagara/software/commercial/qc52/exe/qcprog.exe_s fragments/B019/conf-2/spe_input.inp_158755.0 /gpfs/fs0/scratch/a/aspuru/rhickman/descriptor_computation/qchem158755/
                  Welcome to Q-Chem
     A Quantum Leap Into The Future Of Chemistry


 Q-Chem 5.2, Q-Chem, Inc., Pleasanton, CA (2019)

 License issued to: SRG Alan Aspuru-Guzik, University of Toronto

 Yihan Shao,  Zhengting Gan,  E. Epifanovsky,  A. T. B. Gilbert,  M. Wormit,  
 J. Kussmann,  A. W. Lange,  A. Behn,  Jia Deng,  Xintian Feng,  D. Ghosh,  
 M. Goldey,  P. R. Horn,  L. D. Jacobson,  I. Kaliman,  T. Kus,  A. Landau,  
 Jie Liu,  E. I. Proynov,  R. M. Richard,  R. P. Steele,  E. J. Sundstrom,  
 H. L. Woodcock III,  P. M. Zimmerman,  D. Zuev,  B. Albrecht,  E. Alguire,  
 S. A. Baeppler,  D. Barton,  Z. Benda,  Y. A. Bernard,  E. J. Berquist,  
 K. B. Bravaya,  H. Burton,  D. Casanova,  Chun-Min Chang,  Yunqing Chen,  
 A. Chien,  K. D. Closser,  M. P. Coons,  S. Coriani,  S. Dasgupta,  
 A. L. Dempwolff,  M. Diedenhofen,  Hainam Do,  R. G. Edgar,  Po-Tung Fang,  
 S. Faraji,  S. Fatehi,  Qingguo Feng,  K. D. Fenk,  J. Fosso-Tande,  
 J. Gayvert,  Qinghui Ge,  A. Ghysels,  G. Gidofalvi,  J. Gomes,  
 J. Gonthier,  A. Gunina,  D. Hait,  M. W. D. Hanson-Heine,  
 P. H. P. Harbach,  A. W. Hauser,  M. F. Herbst,  J. E. Herr,  
 E. G. Hohenstein,  Z. C. Holden,  Kerwin Hui,  B. C. Huynh,  T.-C. Jagau,  
 Hyunjun Ji,  B. Kaduk,  K. Khistyaev,  Jaehoon Kim,  P. Klunzinger,  K. Koh,  
 D. Kosenkov,  L. Koulias,  T. Kowalczyk,  C. M. Krauter,  A. Kunitsa,  
 Ka Un Lao,  A. Laurent,  K. V. Lawler,  Joonho Lee,  D. Lefrancois,  
 S. Lehtola,  D. S. Levine,  Yi-Pei Li,  You-Sheng Lin,  Fenglai Liu,  
 E. Livshits,  A. Luenser,  P. Manohar,  E. Mansoor,  S. F. Manzer,  
 Shan-Ping Mao,  Yuezhi Mao,  N. Mardirossian,  A. V. Marenich,  
 T. Markovich,  L. A. Martinez-Martinez,  S. A. Maurer,  N. J. Mayhall,  
 S. C. McKenzie,  J.-M. Mewes,  P. Morgante,  A. F. Morrison,  
 J. W. Mullinax,  K. Nanda,  T. S. Nguyen-Beck,  R. Olivares-Amaya,  
 J. A. Parkhill,  Zheng Pei,  T. M. Perrine,  F. Plasser,  P. Pokhilko,  
 S. Prager,  A. Prociuk,  E. Ramos,  D. R. Rehn,  F. Rob,  M. Scheurer,  
 M. Schneider,  N. Sergueev,  S. M. Sharada,  S. Sharma,  D. W. Small,  
 T. Stauch,  T. Stein,  Yu-Chuan Su,  A. J. W. Thom,  A. Tkatchenko,  
 T. Tsuchimochi,  N. M. Tubman,  L. Vogt,  M. L. Vidal,  O. Vydrov,  
 M. A. Watson,  J. Wenzel,  M. de Wergifosse,  T. A. Wesolowski,  A. White,  
 J. Witte,  A. Yamada,  Jun Yang,  K. Yao,  S. Yeganeh,  S. R. Yost,  
 Zhi-Qiang You,  A. Zech,  Igor Ying Zhang,  Xing Zhang,  Yan Zhao,  
 Ying Zhu,  B. R. Brooks,  G. K. L. Chan,  C. J. Cramer,  M. S. Gordon,  
 W. J. Hehre,  A. Klamt,  M. W. Schmidt,  C. D. Sherrill,  D. G. Truhlar,  
 A. Aspuru-Guzik,  R. Baer,  A. T. Bell,  N. A. Besley,  Jeng-Da Chai,  
 A. E. DePrince, III,  R. A. DiStasio Jr.,  A. Dreuw,  B. D. Dunietz,  
 T. R. Furlani,  Chao-Ping Hsu,  Yousung Jung,  Jing Kong,  D. S. Lambrecht,  
 WanZhen Liang,  C. Ochsenfeld,  V. A. Rassolov,  L. V. Slipchenko,  
 J. E. Subotnik,  T. Van Voorhis,  J. M. Herbert,  A. I. Krylov,  
 P. M. W. Gill,  M. Head-Gordon

 Contributors to earlier versions of Q-Chem not listed above: 
 R. D. Adamson,  B. Austin,  J. Baker,  G. J. O. Beran,  K. Brandhorst,  
 S. T. Brown,  E. F. C. Byrd,  A. K. Chakraborty,  C.-L. Cheng,  
 Siu Hung Chien,  D. M. Chipman,  D. L. Crittenden,  H. Dachsel,  
 R. J. Doerksen,  A. D. Dutoi,  L. Fusti-Molnar,  W. A. Goddard III,  
 A. Golubeva-Zadorozhnaya,  S. R. Gwaltney,  G. Hawkins,  A. Heyden,  
 S. Hirata,  G. Kedziora,  F. J. Keil,  C. Kelley,  Jihan Kim,  R. A. King,  
 R. Z. Khaliullin,  P. P. Korambath,  W. Kurlancheek,  A. M. Lee,  M. S. Lee,  
 S. V. Levchenko,  Ching Yeh Lin,  D. Liotard,  R. C. Lochan,  I. Lotan,  
 P. E. Maslen,  N. Nair,  D. P. O'Neill,  D. Neuhauser,  E. Neuscamman,  
 C. M. Oana,  R. Olson,  B. Peters,  R. Peverati,  P. A. Pieniazek,  
 Y. M. Rhee,  J. Ritchie,  M. A. Rohrdanz,  E. Rosta,  N. J. Russ,  
 H. F. Schaefer III,  N. E. Schultz,  N. Shenvi,  A. C. Simmonett,  A. Sodt,  
 D. Stuck,  K. S. Thanthiriwatte,  V. Vanovschi,  Tao Wang,  A. Warshel,  
 C. F. Williams,  Q. Wu,  X. Xu,  W. Zhang

 Please cite Q-Chem as follows:
 Y. Shao et al., Mol. Phys. 113, 184-215 (2015)
 DOI: 10.1080/00268976.2014.952696

 Q-Chem 5.2.1 for Intel X86 EM64T Linux

 Parts of Q-Chem use Armadillo 8.300.2 (Tropical Shenanigans).
 http://arma.sourceforge.net/

 Q-Chem begins on Mon Feb  7 18:03:43 2022  

Host: 
0

     Scratch files written to /gpfs/fs0/scratch/a/aspuru/rhickman/descriptor_computation/qchem158755//
 Jul1719 |scratch|qcdevops|jenkins|workspace|build_RNUM -1
Processing $rem in /scinet/niagara/software/commercial/qc52/config/preferences:
	 MEM_TOTAL  4000 
NAlpha2: 86
NElect   86
Mult     1

Checking the input file for inconsistencies... 	...done.

--------------------------------------------------------------
User input:
--------------------------------------------------------------
$molecule
0 1
C         4.73252805740000   -0.40216362800000   -0.01656352020000
C         3.68840397360000    0.41872125460000   -0.00276158500000
C         2.28701001320000    0.03079532610000    0.00388345660000
C         1.83765398450000   -1.29262283990000    0.02807016720000
C         0.48328498930000   -1.55267446260000    0.03196094240000
C        -0.41534436740000   -0.48055507520000    0.01182924520000
C        -1.84677033680000   -0.73127894740000    0.01577486330000
C        -2.79112382770000    0.20029381940000   -0.00389224670000
F        -2.63909515030000    1.50733255090000   -0.03056756880000
F        -4.09093738770000   -0.08966064430000    0.00098286810000
N         0.00585802180000    0.78300566970000   -0.01053505900000
C         1.29639010760000    1.02132425020000   -0.01388345150000
H         5.74006073250000   -0.02394033660000   -0.02166996500000
H         4.63273680300000   -1.47413476890000   -0.02463291410000
H         3.85625659640000    1.48865430070000    0.00178114180000
H         2.54176331950000   -2.11075239680000    0.04533358140000
H         0.11655640370000   -2.56772530260000    0.05085950270000
H        -2.17497118930000   -1.75881060530000    0.03628006500000
H         1.57037849650000    2.06906244780000   -0.03238008800000
$end

$rem
BASIS = 6-31G*
GUI = 2
METHOD = B3LYP
PRINT_ORBITALS false
MOLDEN_FORMAT false
--------------------------------------------------------------
 ----------------------------------------------------------------
             Standard Nuclear Orientation (Angstroms)
    I     Atom           X                Y                Z
 ----------------------------------------------------------------
    1      C       4.6145970030    -0.0519059933    -0.0195496700
    2      C       3.5166001548     0.6950166491     0.0077829829
    3      C       2.1451374834     0.2117735289     0.0063892922
    4      C       1.7876792060    -1.1395831200     0.0069061270
    5      C       0.4543533005    -1.4919975614     0.0050484450
    6      C      -0.5157464466    -0.4838893025     0.0029976215
    7      C      -1.9265877913    -0.8322886779     0.0012920377
    8      C      -2.9326575887     0.0324800199    -0.0028058748
    9      F      -2.8707022307     1.3471371851    -0.0063567516
   10      F      -4.2095040524    -0.3460354067    -0.0041580186
   11      N      -0.1822666158     0.8057961325     0.0032257187
   12      C       1.0888646967     1.1321415896     0.0051881178
   13      H       5.5937935864     0.3946018119    -0.0171296822
   14      H       4.5886106515    -1.1278896241    -0.0465584129
   15      H       3.6106260539     1.7737003244     0.0312887563
   16      H       2.5462846144    -1.9076388900     0.0103877347
   17      H       0.1581617100    -2.5299981564     0.0057732153
   18      H      -2.1834853565    -1.8801229256     0.0034370814
   19      H       1.2902914919     2.1963757322     0.0053597329
 ----------------------------------------------------------------
 Molecular Point Group                 C1    NOp =  1
 Largest Abelian Subgroup              C1    NOp =  1
 Nuclear Repulsion Energy =         634.45560142 hartrees
 There are       43 alpha and       43 beta electrons
 Requested basis set is 6-31G(d)
 There are 62 shells and 194 basis functions

 Total QAlloc Memory Limit   4000 MB
 Mega-Array Size       188 MB
 MEM_STATIC part       192 MB
 A cutoff of  1.0D-08 yielded   1312 shell pairs
 There are     13754 function pairs
 Smallest overlap matrix eigenvalue = 6.08E-04

 Scale SEOQF with 1.000000e-02/1.000000e-01/1.000000e+00

 Standard Electronic Orientation quadrupole field applied
 Nucleus-field energy     =     0.0000000082 hartrees
 Guess from superposition of atomic densities
 Warning:  Energy on first SCF cycle will be non-variational
 SAD guess density has 86.000000 electrons

 -----------------------------------------------------------------------
  General SCF calculation program by
  Eric Jon Sundstrom, Paul Horn, Yuezhi Mao, Dmitri Zuev, Alec White,
  David Stuck, Shaama M.S., Shane Yost, Joonho Lee, David Small,
  Daniel Levine, Susi Lehtola, Hugh Burton, Evgeny Epifanovsky,
  Bang C. Huynh
 -----------------------------------------------------------------------
 Exchange:     0.2000 Hartree-Fock + 0.0800 Slater + 0.7200 B88
 Correlation:  0.1900 VWN1RPA + 0.8100 LYP
 Using SG-1 standard quadrature grid
 A restricted SCF calculation will be
 performed using DIIS
 SCF converges when DIIS error is below 1.0e-05
 ---------------------------------------
  Cycle       Energy         DIIS error
 ---------------------------------------
    1    -604.2882960117      5.77e-02  
    2    -601.3571693180      6.39e-03  
    3    -601.1906925157      8.77e-03  
    4    -601.5437915248      1.41e-03  
    5    -601.5530848458      4.23e-04  
    6    -601.5536146388      2.49e-04  
    7    -601.5539045849      4.80e-05  
    8    -601.5539140769      1.94e-05  
    9    -601.5539157411      5.79e-06  Convergence criterion met
 ---------------------------------------
 SCF time:   CPU 21.21s  wall 21.00s 
 SCF   energy in the final basis set =     -601.5539157411
 Total energy in the final basis set =     -601.5539157411
 
 --------------------------------------------------------------
 
                    Orbital Energies (a.u.)
 --------------------------------------------------------------
 
 Alpha MOs
 -- Occupied --
-24.7362 -24.7346 -14.3242 -10.3600 -10.2367 -10.2210 -10.2077 -10.2035
-10.2002 -10.2001 -10.1979 -10.1870  -1.2838  -1.2221  -0.9538  -0.8312
 -0.8109  -0.7791  -0.7358  -0.6625  -0.6383  -0.6222  -0.5732  -0.5713
 -0.5420  -0.5171  -0.5069  -0.4931  -0.4623  -0.4409  -0.4375  -0.4369
 -0.4211  -0.4126  -0.4121  -0.4025  -0.3892  -0.3572  -0.3337  -0.2889
 -0.2717  -0.2523  -0.2174
 -- Virtual --
 -0.0536  -0.0159   0.0209   0.0860   0.0862   0.1090   0.1141   0.1427
  0.1599   0.1644   0.1772   0.1923   0.1990   0.2186   0.2422   0.2840
  0.3010   0.3382   0.3553   0.3839   0.4076   0.4380   0.4541   0.4748
  0.4977   0.5096   0.5141   0.5402   0.5510   0.5558   0.5686   0.5714
  0.5804   0.5853   0.5965   0.6127   0.6278   0.6487   0.6513   0.6630
  0.6946   0.6956   0.7147   0.7469   0.7899   0.8123   0.8250   0.8396
  0.8468   0.8732   0.8754   0.8846   0.8882   0.9260   0.9537   0.9638
  0.9905   0.9973   1.0290   1.0410   1.0908   1.1127   1.1359   1.1553
  1.1661   1.1978   1.2193   1.2442   1.2451   1.2768   1.2787   1.3042
  1.3130   1.3480   1.3946   1.4025   1.4368   1.4573   1.4788   1.4811
  1.4853   1.5075   1.5197   1.5409   1.6107   1.6684   1.6691   1.7056
  1.7280   1.7512   1.7894   1.7949   1.8230   1.8428   1.8681   1.8717
  1.8858   1.9188   1.9597   1.9653   1.9813   1.9911   2.0021   2.0269
  2.0600   2.1015   2.1320   2.1463   2.1593   2.1717   2.2041   2.2362
  2.2430   2.2737   2.3161   2.3351   2.3599   2.3773   2.3901   2.5016
  2.5197   2.5307   2.5701   2.5862   2.6404   2.6508   2.6900   2.7261
  2.7359   2.8140   2.8598   2.8951   2.9445   2.9884   3.0462   3.1413
  3.1647   3.3113   3.4630   4.0541   4.0811   4.0963   4.1425   4.1990
  4.2411   4.2825   4.3252   4.5051   4.6620   4.8161   5.2824
 --------------------------------------------------------------
 
          Ground-State Mulliken Net Atomic Charges

     Atom                 Charge (a.u.)
  ----------------------------------------
      1 C                    -0.352594
      2 C                    -0.114063
      3 C                     0.147962
      4 C                    -0.150757
      5 C                    -0.177475
      6 C                     0.339134
      7 C                    -0.296024
      8 C                     0.569077
      9 F                    -0.209045
     10 F                    -0.247321
     11 N                    -0.486341
     12 C                    -0.021621
     13 H                     0.148853
     14 H                     0.142408
     15 H                     0.133715
     16 H                     0.139728
     17 H                     0.135655
     18 H                     0.158478
     19 H                     0.140231
  ----------------------------------------
  Sum of atomic charges =     0.000000

 -----------------------------------------------------------------
                    Cartesian Multipole Moments
 -----------------------------------------------------------------
    Charge (ESU x 10^10)
                 0.0000
    Dipole Moment (Debye)
         X       1.8065      Y      -1.8117      Z       0.0049
       Tot       2.5584
    Quadrupole Moments (Debye-Ang)
        XX     -63.9932     XY       2.4813     YY     -61.3866
        XZ      -0.0169     YZ       0.0535     ZZ     -69.1928
    Octopole Moments (Debye-Ang^2)
       XXX     -14.2013    XXY       0.6362    XYY      -8.6716
       YYY       2.1622    XXZ      -0.1609    XYZ       0.2493
       YYZ       0.0428    XZZ     -27.4091    YZZ       4.6707
       ZZZ      -0.0875
    Hexadecapole Moments (Debye-Ang^3)
      XXXX   -2774.6796   XXXY     -17.8481   XXYY    -512.7991
      XYYY      -6.5374   YYYY    -390.3594   XXXZ      -1.0592
      XXYZ       1.0103   XYYZ       0.1952   YYYZ       0.0533
      XXZZ    -511.4330   XYZZ      -9.4280   YYZZ     -86.4501
      XZZZ       0.4488   YZZZ      -0.0158   ZZZZ     -65.2165
 -----------------------------------------------------------------
Archival summary:
1\1\nia1977.scinet.local\SP\ProcedureUnspecified\6-31G*\2197\rhickman\MonFeb718:04:052022MonFeb718:04:052022\0\\#,ProcedureUnspecified,6-31G*,\\0,1\N\C,1,1.31236\H,2,1.08313,1,115.116\C,1,1.3321,2,118.897,3,-179.994,0\C,4,1.39906,1,121.603,2,0.0122028,0\H,5,1.07943,4,120.175,1,179.941,0\C,5,1.37911,4,119.094,1,-0.0216073,0\H,7,1.07954,5,119.84,4,179.884,0\C,7,1.39783,5,119.622,4,-0.0150829,0\C,4,1.45322,1,118.369,2,179.979,0\H,10,1.07887,4,117.647,1,-179.861,0\C,10,1.32666,4,125.448,1,0.144214,0\F,12,1.31612,10,127.983,4,0.0144849,0\F,12,1.33177,10,122.807,4,-179.999,0\C,9,1.45411,7,124.227,5,-179.98,0\H,15,1.08303,9,114.387,7,-178.596,0\C,15,1.32825,9,126.354,7,1.56753,0\H,17,1.0762,15,121.251,9,179.93,0\H,17,1.07664,15,122.858,9,0.0135857,0\\\@

 Total job time:  21.45s(wall), 21.36s(cpu) 
 Mon Feb  7 18:04:05 2022

        *************************************************************
        *                                                           *
        *  Thank you very much for using Q-Chem.  Have a nice day.  *
        *                                                           *
        *************************************************************


