19
 energy: -35.168549410733 gnorm: 0.000131767877 xtb: 6.5.0 (unknown)
C           -3.96294245370000       -1.49400821530000        0.00173890490000
C           -2.63595799930000       -1.51121554170000       -0.00073849280000
C           -1.81954444710000       -0.30208693380000       -0.00084135550000
C           -0.42607962430000       -0.39794045800000       -0.00123044800000
C            0.34113544320000        0.76475721210000       -0.00040490790000
C            1.79669793210000        0.78076796620000       -0.00004848500000
C            2.62547228750000       -0.25253804050000        0.00014653610000
F            2.32073560250000       -1.54229231470000       -0.00009386570000
F            3.94872200270000       -0.12241884330000        0.00073831670000
C           -0.33994249020000        1.98551039500000        0.00019895090000
C           -1.72489076460000        1.97402184030000        0.00012509410000
N           -2.44837469320000        0.87371185510000       -0.00016327830000
H           -4.54572538330000       -2.39890854330000        0.00201858390000
H           -4.49392510270000       -0.55778212370000        0.00368144830000
H           -2.08825573600000       -2.44428269690000       -0.00269605580000
H            0.03456835710000       -1.37200679300000       -0.00193757590000
H            2.26753528180000        1.75324440340000        0.00032494900000
H            0.20222512000000        2.91830496060000        0.00075623650000
H           -2.28601831320000        2.89991276510000        0.00053669290000
