
Running Job 1 of 1 fragments/C015/conf-3/spe_input.inp
qchem fragments/C015/conf-3/spe_input.inp_328012.0 /gpfs/fs0/scratch/a/aspuru/rhickman/descriptor_computation/qchem328012/ 0
/scinet/niagara/software/commercial/qc52/exe/qcprog.exe_s fragments/C015/conf-3/spe_input.inp_328012.0 /gpfs/fs0/scratch/a/aspuru/rhickman/descriptor_computation/qchem328012/
                  Welcome to Q-Chem
     A Quantum Leap Into The Future Of Chemistry


 Q-Chem 5.2, Q-Chem, Inc., Pleasanton, CA (2019)

 License issued to: SRG Alan Aspuru-Guzik, University of Toronto

 Yihan Shao,  Zhengting Gan,  E. Epifanovsky,  A. T. B. Gilbert,  M. Wormit,  
 J. Kussmann,  A. W. Lange,  A. Behn,  Jia Deng,  Xintian Feng,  D. Ghosh,  
 M. Goldey,  P. R. Horn,  L. D. Jacobson,  I. Kaliman,  T. Kus,  A. Landau,  
 Jie Liu,  E. I. Proynov,  R. M. Richard,  R. P. Steele,  E. J. Sundstrom,  
 H. L. Woodcock III,  P. M. Zimmerman,  D. Zuev,  B. Albrecht,  E. Alguire,  
 S. A. Baeppler,  D. Barton,  Z. Benda,  Y. A. Bernard,  E. J. Berquist,  
 K. B. Bravaya,  H. Burton,  D. Casanova,  Chun-Min Chang,  Yunqing Chen,  
 A. Chien,  K. D. Closser,  M. P. Coons,  S. Coriani,  S. Dasgupta,  
 A. L. Dempwolff,  M. Diedenhofen,  Hainam Do,  R. G. Edgar,  Po-Tung Fang,  
 S. Faraji,  S. Fatehi,  Qingguo Feng,  K. D. Fenk,  J. Fosso-Tande,  
 J. Gayvert,  Qinghui Ge,  A. Ghysels,  G. Gidofalvi,  J. Gomes,  
 J. Gonthier,  A. Gunina,  D. Hait,  M. W. D. Hanson-Heine,  
 P. H. P. Harbach,  A. W. Hauser,  M. F. Herbst,  J. E. Herr,  
 E. G. Hohenstein,  Z. C. Holden,  Kerwin Hui,  B. C. Huynh,  T.-C. Jagau,  
 Hyunjun Ji,  B. Kaduk,  K. Khistyaev,  Jaehoon Kim,  P. Klunzinger,  K. Koh,  
 D. Kosenkov,  L. Koulias,  T. Kowalczyk,  C. M. Krauter,  A. Kunitsa,  
 Ka Un Lao,  A. Laurent,  K. V. Lawler,  Joonho Lee,  D. Lefrancois,  
 S. Lehtola,  D. S. Levine,  Yi-Pei Li,  You-Sheng Lin,  Fenglai Liu,  
 E. Livshits,  A. Luenser,  P. Manohar,  E. Mansoor,  S. F. Manzer,  
 Shan-Ping Mao,  Yuezhi Mao,  N. Mardirossian,  A. V. Marenich,  
 T. Markovich,  L. A. Martinez-Martinez,  S. A. Maurer,  N. J. Mayhall,  
 S. C. McKenzie,  J.-M. Mewes,  P. Morgante,  A. F. Morrison,  
 J. W. Mullinax,  K. Nanda,  T. S. Nguyen-Beck,  R. Olivares-Amaya,  
 J. A. Parkhill,  Zheng Pei,  T. M. Perrine,  F. Plasser,  P. Pokhilko,  
 S. Prager,  A. Prociuk,  E. Ramos,  D. R. Rehn,  F. Rob,  M. Scheurer,  
 M. Schneider,  N. Sergueev,  S. M. Sharada,  S. Sharma,  D. W. Small,  
 T. Stauch,  T. Stein,  Yu-Chuan Su,  A. J. W. Thom,  A. Tkatchenko,  
 T. Tsuchimochi,  N. M. Tubman,  L. Vogt,  M. L. Vidal,  O. Vydrov,  
 M. A. Watson,  J. Wenzel,  M. de Wergifosse,  T. A. Wesolowski,  A. White,  
 J. Witte,  A. Yamada,  Jun Yang,  K. Yao,  S. Yeganeh,  S. R. Yost,  
 Zhi-Qiang You,  A. Zech,  Igor Ying Zhang,  Xing Zhang,  Yan Zhao,  
 Ying Zhu,  B. R. Brooks,  G. K. L. Chan,  C. J. Cramer,  M. S. Gordon,  
 W. J. Hehre,  A. Klamt,  M. W. Schmidt,  C. D. Sherrill,  D. G. Truhlar,  
 A. Aspuru-Guzik,  R. Baer,  A. T. Bell,  N. A. Besley,  Jeng-Da Chai,  
 A. E. DePrince, III,  R. A. DiStasio Jr.,  A. Dreuw,  B. D. Dunietz,  
 T. R. Furlani,  Chao-Ping Hsu,  Yousung Jung,  Jing Kong,  D. S. Lambrecht,  
 WanZhen Liang,  C. Ochsenfeld,  V. A. Rassolov,  L. V. Slipchenko,  
 J. E. Subotnik,  T. Van Voorhis,  J. M. Herbert,  A. I. Krylov,  
 P. M. W. Gill,  M. Head-Gordon

 Contributors to earlier versions of Q-Chem not listed above: 
 R. D. Adamson,  B. Austin,  J. Baker,  G. J. O. Beran,  K. Brandhorst,  
 S. T. Brown,  E. F. C. Byrd,  A. K. Chakraborty,  C.-L. Cheng,  
 Siu Hung Chien,  D. M. Chipman,  D. L. Crittenden,  H. Dachsel,  
 R. J. Doerksen,  A. D. Dutoi,  L. Fusti-Molnar,  W. A. Goddard III,  
 A. Golubeva-Zadorozhnaya,  S. R. Gwaltney,  G. Hawkins,  A. Heyden,  
 S. Hirata,  G. Kedziora,  F. J. Keil,  C. Kelley,  Jihan Kim,  R. A. King,  
 R. Z. Khaliullin,  P. P. Korambath,  W. Kurlancheek,  A. M. Lee,  M. S. Lee,  
 S. V. Levchenko,  Ching Yeh Lin,  D. Liotard,  R. C. Lochan,  I. Lotan,  
 P. E. Maslen,  N. Nair,  D. P. O'Neill,  D. Neuhauser,  E. Neuscamman,  
 C. M. Oana,  R. Olson,  B. Peters,  R. Peverati,  P. A. Pieniazek,  
 Y. M. Rhee,  J. Ritchie,  M. A. Rohrdanz,  E. Rosta,  N. J. Russ,  
 H. F. Schaefer III,  N. E. Schultz,  N. Shenvi,  A. C. Simmonett,  A. Sodt,  
 D. Stuck,  K. S. Thanthiriwatte,  V. Vanovschi,  Tao Wang,  A. Warshel,  
 C. F. Williams,  Q. Wu,  X. Xu,  W. Zhang

 Please cite Q-Chem as follows:
 Y. Shao et al., Mol. Phys. 113, 184-215 (2015)
 DOI: 10.1080/00268976.2014.952696

 Q-Chem 5.2.1 for Intel X86 EM64T Linux

 Parts of Q-Chem use Armadillo 8.300.2 (Tropical Shenanigans).
 http://arma.sourceforge.net/

 Q-Chem begins on Tue Feb  8 14:48:12 2022  

Host: 
0

     Scratch files written to /gpfs/fs0/scratch/a/aspuru/rhickman/descriptor_computation/qchem328012//
 Jul1719 |scratch|qcdevops|jenkins|workspace|build_RNUM -1
Processing $rem in /scinet/niagara/software/commercial/qc52/config/preferences:
	 MEM_TOTAL  4000 
NAlpha2: 126
NElect   126
Mult     1

Checking the input file for inconsistencies... 	...done.

--------------------------------------------------------------
User input:
--------------------------------------------------------------
$molecule
0 1
C         5.86869647110000   -0.65620769080000   -0.16677609810000
C         4.99796774940000    0.34517981910000   -0.21106510940000
C         3.54475005610000    0.24707426900000   -0.16889117970000
C         2.78505528820000    1.40846748090000   -0.32441570460000
C         1.40680749070000    1.35457484830000   -0.28761572710000
C         0.73149078720000    0.15314008470000   -0.10049603440000
C        -0.74265394380000    0.12450055050000   -0.07174598690000
C        -1.44578339600000   -0.69876715770000   -0.94614769350000
C        -2.82442679450000   -0.74524708580000   -0.95114886220000
C        -3.55715722640000    0.03942082410000   -0.05887710630000
C        -5.01316750290000    0.03487715320000   -0.00294841680000
C        -5.83597648170000   -0.70217628270000   -0.73960533250000
C        -2.85798571970000    0.86082536150000    0.82107719510000
C        -1.46803085860000    0.92464023060000    0.82952815360000
N        -0.82643018720000    1.79376308670000    1.68916600060000
C         1.48466047100000   -1.02530082910000    0.05833020120000
N         0.86505785210000   -2.25031151670000    0.20677271090000
C         2.87367247310000   -0.95574467840000    0.02749602680000
H         6.92972106170000   -0.47798993710000   -0.20796113710000
H         5.56922344230000   -1.68762967470000   -0.09364328350000
H         5.37344279910000    1.35824354640000   -0.29599134950000
H         3.28123773890000    2.35550928300000   -0.47934626580000
H         0.82829002570000    2.25700715220000   -0.42325562060000
H        -0.88612925370000   -1.30005177230000   -1.64821843650000
H        -3.32977389860000   -1.38991686960000   -1.65203970710000
H        -5.43588518870000    0.71479925420000    0.72777298570000
H        -5.48762380230000   -1.39847818520000   -1.48280946440000
H        -6.90428747270000   -0.63367009160000   -0.62414502440000
H        -3.40611341380000    1.47437365510000    1.52419463610000
H        -1.35508466020000    2.09524605650000    2.49125510210000
H         0.14872224300000    1.60864568870000    1.86380315710000
H        -0.09718019580000   -2.22986797020000    0.50563006740000
H         1.42349567200000   -2.98348006010000    0.61212653340000
H         3.43178300170000   -1.87023853820000    0.16387760160000
$end

$rem
BASIS = 6-31G*
GUI = 2
METHOD = B3LYP
PRINT_ORBITALS false
MOLDEN_FORMAT false
--------------------------------------------------------------
 ----------------------------------------------------------------
             Standard Nuclear Orientation (Angstroms)
    I     Atom           X                Y                Z
 ----------------------------------------------------------------
    1      C       5.8699111625    -0.6533764957     0.0620509246
    2      C       4.9963250572     0.2621254578    -0.3399571075
    3      C       3.5434473455     0.1829034474    -0.2617571624
    4      C       2.7802927518     1.2074838158    -0.8256617161
    5      C       1.4022534772     1.1676829533    -0.7686591326
    6      C       0.7305594396     0.1142073136    -0.1574896660
    7      C      -0.7434580948     0.0948267531    -0.1169165416
    8      C      -1.4454964611    -0.9907477575    -0.6320953499
    9      C      -2.8240101171    -1.0387821640    -0.6167391855
   10      C      -3.5576918839     0.0142673636    -0.0676087289
   11      C      -5.0136046835     0.0272294348    -0.0104729836
   12      C      -5.8353717649    -0.9283414996    -0.4282155450
   13      C      -2.8595985223     1.1001082811     0.4534296025
   14      C      -1.4698171404     1.1655737313     0.4349835383
   15      N      -0.8294559813     2.2884116119     0.9199328846
   16      C       1.4872412359    -0.9250806499     0.4156826651
   17      N       0.8712732192    -2.0144241827     0.9992131603
   18      C       2.8760091492    -0.8684964040     0.3585420268
   19      H       6.9303750436    -0.4999499118    -0.0433416617
   20      H       5.5734252634    -1.5888859796     0.5045234430
   21      H       5.3688475618     1.1764113418    -0.7869474885
   22      H       3.2736094581     2.0351274148    -1.3142652142
   23      H       0.8210270360     1.9584742409    -1.2206432747
   24      H      -0.8851387671    -1.8043347567    -1.0699705883
   25      H      -3.3285255248    -1.8946203109    -1.0353417081
   26      H      -5.4372066867     0.9247794878     0.4253059954
   27      H      -5.4861059402    -1.8458370195    -0.8695245809
   28      H      -6.9037087542    -0.8249108274    -0.3429469818
   29      H      -3.4084626628     1.9255294465     0.8878115410
   30      H      -1.3578369321     2.8588541962     1.5595603452
   31      H       0.1464518693     2.1811780217     1.1475151199
   32      H      -0.0906022424    -1.8891353910     1.2725884225
   33      H       1.4323213977    -2.5497891221     1.6413268233
   34      H       3.4368635105    -1.6703043209     0.8156336648
 ----------------------------------------------------------------
 Molecular Point Group                 C1    NOp =  1
 Largest Abelian Subgroup              C1    NOp =  1
 Nuclear Repulsion Energy =        1191.06101289 hartrees
 There are       63 alpha and       63 beta electrons
 Requested basis set is 6-31G(d)
 There are 104 shells and 302 basis functions

 Total QAlloc Memory Limit   4000 MB
 Mega-Array Size       188 MB
 MEM_STATIC part       192 MB
 A cutoff of  1.0D-08 yielded   3038 shell pairs
 There are     27842 function pairs
 Smallest overlap matrix eigenvalue = 2.96E-04

 Scale SEOQF with 1.000000e-02/1.000000e-01/1.000000e-01

 Standard Electronic Orientation quadrupole field applied
 Nucleus-field energy     =     0.0000000127 hartrees
 Guess from superposition of atomic densities
 Warning:  Energy on first SCF cycle will be non-variational
 SAD guess density has 126.000000 electrons

 -----------------------------------------------------------------------
  General SCF calculation program by
  Eric Jon Sundstrom, Paul Horn, Yuezhi Mao, Dmitri Zuev, Alec White,
  David Stuck, Shaama M.S., Shane Yost, Joonho Lee, David Small,
  Daniel Levine, Susi Lehtola, Hugh Burton, Evgeny Epifanovsky,
  Bang C. Huynh
 -----------------------------------------------------------------------
 Exchange:     0.2000 Hartree-Fock + 0.0800 Slater + 0.7200 B88
 Correlation:  0.1900 VWN1RPA + 0.8100 LYP
 Using SG-1 standard quadrature grid
 A restricted SCF calculation will be
 performed using DIIS
 SCF converges when DIIS error is below 1.0e-05
 ---------------------------------------
  Cycle       Energy         DIIS error
 ---------------------------------------
    1    -733.3117134205      4.78e-02  
    2    -728.5164354268      4.90e-03  
    3    -728.5405052499      4.80e-03  
    4    -728.8002026824      7.66e-04  
    5    -728.8052800218      3.93e-04  
    6    -728.8071140666      1.20e-04  
    7    -728.8072722123      3.43e-05  
    8    -728.8072844603      1.33e-05  
    9    -728.8072866042      1.85e-06  Convergence criterion met
 ---------------------------------------
 SCF time:   CPU 67.42s  wall 67.00s 
 SCF   energy in the final basis set =     -728.8072866042
 Total energy in the final basis set =     -728.8072866042
 
 --------------------------------------------------------------
 
                    Orbital Energies (a.u.)
 --------------------------------------------------------------
 
 Alpha MOs
 -- Occupied --
-14.3361 -14.3354 -10.2231 -10.2230 -10.1882 -10.1875 -10.1853 -10.1847
-10.1837 -10.1829 -10.1787 -10.1783 -10.1759 -10.1749 -10.1747 -10.1739
-10.1709 -10.1700  -0.9262  -0.9173  -0.8459  -0.8416  -0.7983  -0.7748
 -0.7409  -0.7276  -0.7257  -0.6987  -0.6374  -0.6172  -0.6049  -0.5887
 -0.5628  -0.5571  -0.5210  -0.5165  -0.5119  -0.4931  -0.4769  -0.4631
 -0.4563  -0.4486  -0.4360  -0.4220  -0.4173  -0.4114  -0.4061  -0.3919
 -0.3810  -0.3783  -0.3646  -0.3511  -0.3444  -0.3400  -0.3280  -0.3221
 -0.3201  -0.2901  -0.2734  -0.2294  -0.2193  -0.2018  -0.1866
 -- Virtual --
 -0.0362  -0.0132   0.0160   0.0217   0.0639   0.0856   0.0930   0.0951
  0.1079   0.1161   0.1191   0.1218   0.1413   0.1443   0.1522   0.1531
  0.1808   0.1850   0.1865   0.1981   0.2131   0.2155   0.2241   0.2406
  0.2640   0.2751   0.2908   0.3050   0.3162   0.3187   0.3317   0.3531
  0.3599   0.3717   0.3783   0.3857   0.3977   0.4365   0.4601   0.4716
  0.5112   0.5146   0.5188   0.5309   0.5384   0.5421   0.5476   0.5483
  0.5681   0.5740   0.5779   0.5824   0.5895   0.5949   0.6008   0.6029
  0.6118   0.6146   0.6191   0.6260   0.6280   0.6403   0.6424   0.6480
  0.6508   0.6678   0.6729   0.6892   0.6930   0.7039   0.7066   0.7086
  0.7255   0.7318   0.7554   0.7748   0.7785   0.8232   0.8241   0.8406
  0.8409   0.8436   0.8565   0.8720   0.8837   0.8866   0.8885   0.8935
  0.8966   0.8979   0.9061   0.9182   0.9259   0.9461   0.9570   0.9727
  0.9762   0.9784   0.9892   1.0065   1.0087   1.0192   1.0382   1.0489
  1.0659   1.0687   1.0981   1.1002   1.1080   1.1194   1.1415   1.1556
  1.1789   1.1958   1.2257   1.2376   1.2701   1.2792   1.2930   1.2971
  1.3206   1.3303   1.3350   1.3409   1.3615   1.3863   1.3971   1.4127
  1.4363   1.4594   1.4734   1.4816   1.4871   1.4943   1.5061   1.5199
  1.5288   1.5306   1.5375   1.6060   1.6445   1.6828   1.6830   1.7061
  1.7547   1.7758   1.7905   1.7961   1.8122   1.8338   1.8368   1.8511
  1.8866   1.9012   1.9058   1.9275   1.9361   1.9553   1.9642   1.9829
  1.9970   2.0024   2.0044   2.0141   2.0377   2.0453   2.0734   2.0780
  2.1103   2.1291   2.1505   2.1624   2.1676   2.1974   2.2049   2.2228
  2.2413   2.2511   2.2599   2.2657   2.2712   2.3033   2.3111   2.3226
  2.3516   2.3692   2.3856   2.3970   2.4184   2.4374   2.4540   2.4712
  2.4952   2.5161   2.5404   2.5576   2.5592   2.6106   2.6285   2.6520
  2.6709   2.6775   2.7027   2.7061   2.7100   2.7195   2.7385   2.8219
  2.8454   2.8752   2.8831   2.8982   2.9502   2.9677   3.0319   3.0669
  3.0931   3.2068   3.2846   3.4325   3.5168   3.8658   3.9534   4.0987
  4.1010   4.1413   4.1469   4.1576   4.1644   4.1843   4.2070   4.2656
  4.2966   4.3784   4.3860   4.4645   4.5403   4.7485   4.8448
 --------------------------------------------------------------
 
          Ground-State Mulliken Net Atomic Charges

     Atom                 Charge (a.u.)
  ----------------------------------------
      1 C                    -0.352417
      2 C                    -0.118798
      3 C                     0.187633
      4 C                    -0.214872
      5 C                    -0.196120
      6 C                     0.018941
      7 C                     0.017074
      8 C                    -0.196808
      9 C                    -0.201267
     10 C                     0.189140
     11 C                    -0.114564
     12 C                    -0.354190
     13 C                    -0.266291
     14 C                     0.304119
     15 N                    -0.814611
     16 C                     0.304460
     17 N                    -0.814477
     18 C                    -0.252815
     19 H                     0.141487
     20 H                     0.139295
     21 H                     0.125251
     22 H                     0.119032
     23 H                     0.147691
     24 H                     0.147928
     25 H                     0.118118
     26 H                     0.122662
     27 H                     0.142916
     28 H                     0.141470
     29 H                     0.111480
     30 H                     0.320953
     31 H                     0.333233
     32 H                     0.333073
     33 H                     0.321187
     34 H                     0.110087
  ----------------------------------------
  Sum of atomic charges =     0.000000

 -----------------------------------------------------------------
                    Cartesian Multipole Moments
 -----------------------------------------------------------------
    Charge (ESU x 10^10)
                 0.0000
    Dipole Moment (Debye)
         X      -0.0192      Y       0.2044      Z       2.6411
       Tot       2.6491
    Quadrupole Moments (Debye-Ang)
        XX    -101.1470     XY      -1.6343     YY     -96.5481
        XZ      -0.3793     YZ       0.2333     ZZ    -103.4799
    Octopole Moments (Debye-Ang^2)
       XXX      -2.4916    XXY       1.7098    XYY      -0.8832
       YYY       2.7957    XXZ       6.1802    XYZ     -28.3105
       YYZ      20.8266    XZZ       1.0601    YZZ       1.0530
       ZZZ      17.2050
    Hexadecapole Moments (Debye-Ang^3)
      XXXX   -6610.6688   XXXY     -15.3359   XXYY   -1251.9488
      XYYY     -24.4148   YYYY    -909.2251   XXXZ     -22.2441
      XXYZ      -1.4146   XYYZ       4.8011   YYYZ      11.6575
      XXZZ   -1298.4112   XYZZ     -13.3785   YYZZ    -160.9926
      XZZZ      -0.7474   YZZZ      -2.1866   ZZZZ    -329.5986
 -----------------------------------------------------------------
Archival summary:
1\1\nia2015.scinet.local\SP\ProcedureUnspecified\6-31G*\21616\rhickman\TueFeb814:49:202022TueFeb814:49:202022\0\\#,ProcedureUnspecified,6-31G*,\\0,1\C\C,1,1.39167\H,2,1.08058,1,118.407\C,2,1.37944,1,121.814,3,-178.864,0\H,4,1.07806,2,119.406,1,179.395,0\C,4,1.39598,2,120.221,1,-0.397442,0\C,6,1.39207,4,118.169,2,0.148817,0\H,7,1.08225,6,119.394,4,-179.741,0\C,7,1.39144,6,122.182,4,0.347575,0\N,9,1.38058,7,119.794,6,177.572,0\H,10,1.00683,9,116.138,7,21.5062,0\H,10,1.00781,9,116.227,7,161.816,0\C,6,1.45709,4,123.181,2,-179.623,0\H,13,1.08395,6,114.432,4,-178.688,0\C,13,1.32775,6,126.847,4,1.38834,0\H,15,1.07635,13,122.795,6,-0.0158769,0\H,15,1.07671,13,121.336,6,-179.969,0\C,1,1.4747,2,120.284,3,-0.797224,0\C,18,1.39087,1,120.315,2,124.036,0\H,19,1.08049,18,118.579,1,-0.787199,0\C,19,1.37979,18,121.488,1,-179.713,0\H,21,1.08032,19,119.791,18,179.504,0\C,21,1.39648,19,120.527,18,-0.207764,0\C,23,1.39129,21,118.185,19,-0.221978,0\H,24,1.07999,23,120.041,21,-179.215,0\C,24,1.39109,23,121.869,21,0.63437,0\N,26,1.38079,24,119.657,23,177.61,0\H,27,1.00683,26,116.132,24,21.3957,0\H,27,1.00779,26,116.253,24,161.726,0\C,23,1.45714,21,118.903,19,-179.879,0\H,30,1.08374,23,114.251,21,4.05329,0\C,30,1.32775,23,127.034,21,-175.413,0\H,32,1.07651,30,122.85,23,0.120338,0\H,32,1.07668,30,121.342,23,179.789,0\\\@

 Total job time:  68.00s(wall), 67.69s(cpu) 
 Tue Feb  8 14:49:20 2022

        *************************************************************
        *                                                           *
        *  Thank you very much for using Q-Chem.  Have a nice day.  *
        *                                                           *
        *************************************************************


