
Running Job 1 of 1 fragments/C081/conf-5/spe_input.inp
qchem fragments/C081/conf-5/spe_input.inp_263883.0 /gpfs/fs0/scratch/a/aspuru/rhickman/descriptor_computation/qchem263883/ 0
/scinet/niagara/software/commercial/qc52/exe/qcprog.exe_s fragments/C081/conf-5/spe_input.inp_263883.0 /gpfs/fs0/scratch/a/aspuru/rhickman/descriptor_computation/qchem263883/
                  Welcome to Q-Chem
     A Quantum Leap Into The Future Of Chemistry


 Q-Chem 5.2, Q-Chem, Inc., Pleasanton, CA (2019)

 License issued to: SRG Alan Aspuru-Guzik, University of Toronto

 Yihan Shao,  Zhengting Gan,  E. Epifanovsky,  A. T. B. Gilbert,  M. Wormit,  
 J. Kussmann,  A. W. Lange,  A. Behn,  Jia Deng,  Xintian Feng,  D. Ghosh,  
 M. Goldey,  P. R. Horn,  L. D. Jacobson,  I. Kaliman,  T. Kus,  A. Landau,  
 Jie Liu,  E. I. Proynov,  R. M. Richard,  R. P. Steele,  E. J. Sundstrom,  
 H. L. Woodcock III,  P. M. Zimmerman,  D. Zuev,  B. Albrecht,  E. Alguire,  
 S. A. Baeppler,  D. Barton,  Z. Benda,  Y. A. Bernard,  E. J. Berquist,  
 K. B. Bravaya,  H. Burton,  D. Casanova,  Chun-Min Chang,  Yunqing Chen,  
 A. Chien,  K. D. Closser,  M. P. Coons,  S. Coriani,  S. Dasgupta,  
 A. L. Dempwolff,  M. Diedenhofen,  Hainam Do,  R. G. Edgar,  Po-Tung Fang,  
 S. Faraji,  S. Fatehi,  Qingguo Feng,  K. D. Fenk,  J. Fosso-Tande,  
 J. Gayvert,  Qinghui Ge,  A. Ghysels,  G. Gidofalvi,  J. Gomes,  
 J. Gonthier,  A. Gunina,  D. Hait,  M. W. D. Hanson-Heine,  
 P. H. P. Harbach,  A. W. Hauser,  M. F. Herbst,  J. E. Herr,  
 E. G. Hohenstein,  Z. C. Holden,  Kerwin Hui,  B. C. Huynh,  T.-C. Jagau,  
 Hyunjun Ji,  B. Kaduk,  K. Khistyaev,  Jaehoon Kim,  P. Klunzinger,  K. Koh,  
 D. Kosenkov,  L. Koulias,  T. Kowalczyk,  C. M. Krauter,  A. Kunitsa,  
 Ka Un Lao,  A. Laurent,  K. V. Lawler,  Joonho Lee,  D. Lefrancois,  
 S. Lehtola,  D. S. Levine,  Yi-Pei Li,  You-Sheng Lin,  Fenglai Liu,  
 E. Livshits,  A. Luenser,  P. Manohar,  E. Mansoor,  S. F. Manzer,  
 Shan-Ping Mao,  Yuezhi Mao,  N. Mardirossian,  A. V. Marenich,  
 T. Markovich,  L. A. Martinez-Martinez,  S. A. Maurer,  N. J. Mayhall,  
 S. C. McKenzie,  J.-M. Mewes,  P. Morgante,  A. F. Morrison,  
 J. W. Mullinax,  K. Nanda,  T. S. Nguyen-Beck,  R. Olivares-Amaya,  
 J. A. Parkhill,  Zheng Pei,  T. M. Perrine,  F. Plasser,  P. Pokhilko,  
 S. Prager,  A. Prociuk,  E. Ramos,  D. R. Rehn,  F. Rob,  M. Scheurer,  
 M. Schneider,  N. Sergueev,  S. M. Sharada,  S. Sharma,  D. W. Small,  
 T. Stauch,  T. Stein,  Yu-Chuan Su,  A. J. W. Thom,  A. Tkatchenko,  
 T. Tsuchimochi,  N. M. Tubman,  L. Vogt,  M. L. Vidal,  O. Vydrov,  
 M. A. Watson,  J. Wenzel,  M. de Wergifosse,  T. A. Wesolowski,  A. White,  
 J. Witte,  A. Yamada,  Jun Yang,  K. Yao,  S. Yeganeh,  S. R. Yost,  
 Zhi-Qiang You,  A. Zech,  Igor Ying Zhang,  Xing Zhang,  Yan Zhao,  
 Ying Zhu,  B. R. Brooks,  G. K. L. Chan,  C. J. Cramer,  M. S. Gordon,  
 W. J. Hehre,  A. Klamt,  M. W. Schmidt,  C. D. Sherrill,  D. G. Truhlar,  
 A. Aspuru-Guzik,  R. Baer,  A. T. Bell,  N. A. Besley,  Jeng-Da Chai,  
 A. E. DePrince, III,  R. A. DiStasio Jr.,  A. Dreuw,  B. D. Dunietz,  
 T. R. Furlani,  Chao-Ping Hsu,  Yousung Jung,  Jing Kong,  D. S. Lambrecht,  
 WanZhen Liang,  C. Ochsenfeld,  V. A. Rassolov,  L. V. Slipchenko,  
 J. E. Subotnik,  T. Van Voorhis,  J. M. Herbert,  A. I. Krylov,  
 P. M. W. Gill,  M. Head-Gordon

 Contributors to earlier versions of Q-Chem not listed above: 
 R. D. Adamson,  B. Austin,  J. Baker,  G. J. O. Beran,  K. Brandhorst,  
 S. T. Brown,  E. F. C. Byrd,  A. K. Chakraborty,  C.-L. Cheng,  
 Siu Hung Chien,  D. M. Chipman,  D. L. Crittenden,  H. Dachsel,  
 R. J. Doerksen,  A. D. Dutoi,  L. Fusti-Molnar,  W. A. Goddard III,  
 A. Golubeva-Zadorozhnaya,  S. R. Gwaltney,  G. Hawkins,  A. Heyden,  
 S. Hirata,  G. Kedziora,  F. J. Keil,  C. Kelley,  Jihan Kim,  R. A. King,  
 R. Z. Khaliullin,  P. P. Korambath,  W. Kurlancheek,  A. M. Lee,  M. S. Lee,  
 S. V. Levchenko,  Ching Yeh Lin,  D. Liotard,  R. C. Lochan,  I. Lotan,  
 P. E. Maslen,  N. Nair,  D. P. O'Neill,  D. Neuhauser,  E. Neuscamman,  
 C. M. Oana,  R. Olson,  B. Peters,  R. Peverati,  P. A. Pieniazek,  
 Y. M. Rhee,  J. Ritchie,  M. A. Rohrdanz,  E. Rosta,  N. J. Russ,  
 H. F. Schaefer III,  N. E. Schultz,  N. Shenvi,  A. C. Simmonett,  A. Sodt,  
 D. Stuck,  K. S. Thanthiriwatte,  V. Vanovschi,  Tao Wang,  A. Warshel,  
 C. F. Williams,  Q. Wu,  X. Xu,  W. Zhang

 Please cite Q-Chem as follows:
 Y. Shao et al., Mol. Phys. 113, 184-215 (2015)
 DOI: 10.1080/00268976.2014.952696

 Q-Chem 5.2.1 for Intel X86 EM64T Linux

 Parts of Q-Chem use Armadillo 8.300.2 (Tropical Shenanigans).
 http://arma.sourceforge.net/

 Q-Chem begins on Fri Feb  4 12:49:39 2022  

Host: 
0

     Scratch files written to /gpfs/fs0/scratch/a/aspuru/rhickman/descriptor_computation/qchem263883//
 Jul1719 |scratch|qcdevops|jenkins|workspace|build_RNUM -1
Processing $rem in /scinet/niagara/software/commercial/qc52/config/preferences:
	 MEM_TOTAL  4000 
NAlpha2: 168
NElect   168
Mult     1

Checking the input file for inconsistencies... 	...done.

--------------------------------------------------------------
User input:
--------------------------------------------------------------
$molecule
0 1
C         4.77165335730000   -0.15500484620000    0.96833027420000
C         3.81506972180000    0.05820830350000    0.06826460740000
C         2.50685418620000   -0.53742972780000    0.10313765330000
S         2.16049844170000   -1.82690009420000    1.21263161020000
C         0.55508350550000   -2.00089175950000    0.57549782300000
C        -0.32066939640000   -3.02348702080000    1.07877129710000
C        -0.07711496340000   -3.77830467840000    2.14716438150000
C         0.30549769380000   -1.08642463960000   -0.42757922080000
C        -1.01838533670000   -1.02711184920000   -1.12930316150000
C        -2.10238680960000   -0.38609525800000   -0.25387679360000
C        -3.42262946760000   -0.18029286280000   -0.99674823060000
C        -4.10836811350000   -1.46345329850000   -1.47142380690000
C        -4.48633073560000   -2.44398199720000   -0.36013845960000
C        -5.49492685950000   -1.87261166410000    0.62912669810000
C         1.41716998950000   -0.24551270740000   -0.69191774000000
C         1.45445706070000    0.85421064630000   -1.71184764720000
C         1.51879398400000    2.25480496200000   -1.08607135600000
C         0.28472693160000    2.57120127430000   -0.24714919850000
C         0.35041526130000    3.93897630390000    0.43219752710000
C         0.26590541100000    5.11033667140000   -0.54441472520000
C         0.21929876690000    6.44667441810000    0.18648940710000
H         5.74046532740000    0.30455700000000    0.88325553100000
H         4.61051730040000   -0.79601050120000    1.81923097270000
H         4.00705220660000    0.71087178400000   -0.77301867290000
H        -1.23340341600000   -3.17136726010000    0.51718226310000
H         0.81964332800000   -3.65364977220000    2.73116355370000
H        -0.76536941200000   -4.53908013610000    2.47058878730000
H        -1.32045404440000   -2.04040704020000   -1.40185456890000
H        -0.92759212870000   -0.45447691940000   -2.05307519820000
H        -1.74691257190000    0.58842087670000    0.08542055670000
H        -2.26189816450000   -0.99625244030000    0.63579729240000
H        -3.23725635870000    0.44808933810000   -1.87251128390000
H        -4.10445493740000    0.36933222260000   -0.34515524080000
H        -3.46037158650000   -1.97572141530000   -2.18597934910000
H        -5.01826131520000   -1.18100551640000   -2.00774336360000
H        -3.59241990870000   -2.75999131250000    0.18003867560000
H        -4.91467223670000   -3.33511752590000   -0.82632309000000
H        -5.06486108720000   -1.05045682090000    1.19523091910000
H        -5.80748468570000   -2.64003089470000    1.33390454990000
H        -6.37675131250000   -1.50823359170000    0.10610302500000
H         0.57238467230000    0.79967464280000   -2.35029708790000
H         2.33028786040000    0.71601027330000   -2.35252583060000
H         1.61471829140000    2.98355248100000   -1.89313060930000
H         2.40371294000000    2.33351459700000   -0.45204048290000
H         0.18996567490000    1.80410322360000    0.52560792850000
H        -0.60579340210000    2.52685805600000   -0.87942669010000
H         1.27756952590000    4.01192879670000    1.00571975450000
H        -0.47979608820000    4.01623256510000    1.13913836600000
H        -0.63118897130000    5.00227469720000   -1.15887953460000
H         1.12998983940000    5.10024034030000   -1.21079077560000
H        -0.65034706820000    6.49585766280000    0.83846061040000
H         0.16391572000000    7.27009567210000   -0.52196138230000
H         1.11054577570000    6.57804173080000    0.79640497990000
$end

$rem
BASIS = 6-31G*
GUI = 2
METHOD = B3LYP
PRINT_ORBITALS false
MOLDEN_FORMAT false
--------------------------------------------------------------
 ----------------------------------------------------------------
             Standard Nuclear Orientation (Angstroms)
    I     Atom           X                Y                Z
 ----------------------------------------------------------------
    1      C       3.1592536109     3.8090502330    -0.2184116876
    2      C       2.6732136903     2.7892910516     0.4847858032
    3      C       1.3400517895     2.2657093582     0.3584123966
    4      S       0.1446237959     3.1252899785    -0.5612321202
    5      C      -1.0740576793     1.9611368323    -0.1451400703
    6      C      -2.4283798378     2.1330904758    -0.5947752989
    7      C      -2.8292391777     3.0453095260    -1.4766485523
    8      C      -0.5628992655     0.9522279087     0.6457623297
    9      C      -1.4173278716    -0.1820626441     1.1273612017
   10      C      -1.7162472622    -1.1886683749     0.0094502528
   11      C      -2.4611411573    -2.4273466261     0.5075090331
   12      C      -3.8541090154    -2.1608306973     1.0825437303
   13      C      -4.8473389296    -1.5298707952     0.1054913595
   14      C      -5.1471084776    -2.4113492770    -1.1009536890
   15      C       0.8173549622     1.1218111927     0.9267655327
   16      C       1.6606566036     0.1891625631     1.7453299293
   17      C       2.7079711242    -0.5642050407     0.9128822180
   18      C       2.0711087156    -1.4684036590    -0.1376650840
   19      C       3.0944924580    -2.1871098000    -1.0167456608
   20      C       3.9050229304    -3.2446825782    -0.2700337425
   21      C       4.8272807095    -4.0108380596    -1.2105856923
   22      H       4.1611002885     4.1714492054    -0.0700821384
   23      H       2.5666399785     4.3099067734    -0.9659656227
   24      H       3.2953237505     2.3046672660     1.2255309081
   25      H      -3.1527727685     1.4602058833    -0.1556677882
   26      H      -2.1331294631     3.7272907685    -1.9361071055
   27      H      -3.8610753867     3.1359516690    -1.7667776080
   28      H      -2.3545282352     0.2209821641     1.5166005612
   29      H      -0.9212609906    -0.7031796930     1.9470340731
   30      H      -0.7717254349    -1.5131909949    -0.4306973465
   31      H      -2.2861478654    -0.6987721388    -0.7807842814
   32      H      -1.8604997268    -2.9080000630     1.2849345607
   33      H      -2.5449991491    -3.1362352911    -0.3183189320
   34      H      -3.7652017859    -1.5147739559     1.9586795285
   35      H      -4.2650473094    -3.1138663942     1.4263077977
   36      H      -4.4718133055    -0.5649046064    -0.2388203472
   37      H      -5.7790457936    -1.3407189490     0.6450013041
   38      H      -4.2662162590    -2.5312239497    -1.7262760904
   39      H      -5.9327110043    -1.9656302878    -1.7071712601
   40      H      -5.4795859534    -3.3963022925    -0.7796037341
   41      H       1.0265791292    -0.5412172756     2.2484547747
   42      H       2.1761522034     0.7632090820     2.5208183871
   43      H       3.3184344675    -1.1604350486     1.5936636378
   44      H       3.3616228531     0.1510649961     0.4104878459
   45      H       1.4343232908    -0.8532353966    -0.7784809890
   46      H       1.4384827237    -2.2102458585     0.3565232582
   47      H       3.7742501466    -1.4512639906    -1.4530085076
   48      H       2.5648974053    -2.6734526762    -1.8401437731
   49      H       3.2213185355    -3.9446836389     0.2163504044
   50      H       4.5058230056    -2.7702722885     0.5076390824
   51      H       4.2512779575    -4.5184948674    -1.9814778477
   52      H       5.4002591668    -4.7562254152    -0.6636983712
   53      H       5.5239472744    -3.3315719278    -1.6972363133
 ----------------------------------------------------------------
 Molecular Point Group                 C1    NOp =  1
 Largest Abelian Subgroup              C1    NOp =  1
 Nuclear Repulsion Energy =        1839.47804720 hartrees
 There are       84 alpha and       84 beta electrons
 Requested basis set is 6-31G(d)
 There are 149 shells and 383 basis functions

 Total QAlloc Memory Limit   4000 MB
 Mega-Array Size       188 MB
 MEM_STATIC part       192 MB
 A cutoff of  1.0D-08 yielded   5305 shell pairs
 There are     37211 function pairs
 Smallest overlap matrix eigenvalue = 5.29E-04

 Scale SEOQF with 1.000000e-02/1.000000e-01/1.000000e-01

 Standard Electronic Orientation quadrupole field applied
 Nucleus-field energy     =     0.0000000592 hartrees
 Guess from superposition of atomic densities
 Warning:  Energy on first SCF cycle will be non-variational
 SAD guess density has 168.000000 electrons

 -----------------------------------------------------------------------
  General SCF calculation program by
  Eric Jon Sundstrom, Paul Horn, Yuezhi Mao, Dmitri Zuev, Alec White,
  David Stuck, Shaama M.S., Shane Yost, Joonho Lee, David Small,
  Daniel Levine, Susi Lehtola, Hugh Burton, Evgeny Epifanovsky,
  Bang C. Huynh
 -----------------------------------------------------------------------
 Exchange:     0.2000 Hartree-Fock + 0.0800 Slater + 0.7200 B88
 Correlation:  0.1900 VWN1RPA + 0.8100 LYP
 Using SG-1 standard quadrature grid
 A restricted SCF calculation will be
 performed using DIIS
 SCF converges when DIIS error is below 1.0e-05
 ---------------------------------------
  Cycle       Energy         DIIS error
 ---------------------------------------
    1   -1183.8370385099      4.02e-02  
    2   -1179.1182169963      4.67e-03  
