
Running Job 1 of 1 fragments/C039/conf-4/spe_input.inp
qchem fragments/C039/conf-4/spe_input.inp_299391.0 /gpfs/fs0/scratch/a/aspuru/rhickman/descriptor_computation/qchem299391/ 0
/scinet/niagara/software/commercial/qc52/exe/qcprog.exe_s fragments/C039/conf-4/spe_input.inp_299391.0 /gpfs/fs0/scratch/a/aspuru/rhickman/descriptor_computation/qchem299391/
                  Welcome to Q-Chem
     A Quantum Leap Into The Future Of Chemistry


 Q-Chem 5.2, Q-Chem, Inc., Pleasanton, CA (2019)

 License issued to: SRG Alan Aspuru-Guzik, University of Toronto

 Yihan Shao,  Zhengting Gan,  E. Epifanovsky,  A. T. B. Gilbert,  M. Wormit,  
 J. Kussmann,  A. W. Lange,  A. Behn,  Jia Deng,  Xintian Feng,  D. Ghosh,  
 M. Goldey,  P. R. Horn,  L. D. Jacobson,  I. Kaliman,  T. Kus,  A. Landau,  
 Jie Liu,  E. I. Proynov,  R. M. Richard,  R. P. Steele,  E. J. Sundstrom,  
 H. L. Woodcock III,  P. M. Zimmerman,  D. Zuev,  B. Albrecht,  E. Alguire,  
 S. A. Baeppler,  D. Barton,  Z. Benda,  Y. A. Bernard,  E. J. Berquist,  
 K. B. Bravaya,  H. Burton,  D. Casanova,  Chun-Min Chang,  Yunqing Chen,  
 A. Chien,  K. D. Closser,  M. P. Coons,  S. Coriani,  S. Dasgupta,  
 A. L. Dempwolff,  M. Diedenhofen,  Hainam Do,  R. G. Edgar,  Po-Tung Fang,  
 S. Faraji,  S. Fatehi,  Qingguo Feng,  K. D. Fenk,  J. Fosso-Tande,  
 J. Gayvert,  Qinghui Ge,  A. Ghysels,  G. Gidofalvi,  J. Gomes,  
 J. Gonthier,  A. Gunina,  D. Hait,  M. W. D. Hanson-Heine,  
 P. H. P. Harbach,  A. W. Hauser,  M. F. Herbst,  J. E. Herr,  
 E. G. Hohenstein,  Z. C. Holden,  Kerwin Hui,  B. C. Huynh,  T.-C. Jagau,  
 Hyunjun Ji,  B. Kaduk,  K. Khistyaev,  Jaehoon Kim,  P. Klunzinger,  K. Koh,  
 D. Kosenkov,  L. Koulias,  T. Kowalczyk,  C. M. Krauter,  A. Kunitsa,  
 Ka Un Lao,  A. Laurent,  K. V. Lawler,  Joonho Lee,  D. Lefrancois,  
 S. Lehtola,  D. S. Levine,  Yi-Pei Li,  You-Sheng Lin,  Fenglai Liu,  
 E. Livshits,  A. Luenser,  P. Manohar,  E. Mansoor,  S. F. Manzer,  
 Shan-Ping Mao,  Yuezhi Mao,  N. Mardirossian,  A. V. Marenich,  
 T. Markovich,  L. A. Martinez-Martinez,  S. A. Maurer,  N. J. Mayhall,  
 S. C. McKenzie,  J.-M. Mewes,  P. Morgante,  A. F. Morrison,  
 J. W. Mullinax,  K. Nanda,  T. S. Nguyen-Beck,  R. Olivares-Amaya,  
 J. A. Parkhill,  Zheng Pei,  T. M. Perrine,  F. Plasser,  P. Pokhilko,  
 S. Prager,  A. Prociuk,  E. Ramos,  D. R. Rehn,  F. Rob,  M. Scheurer,  
 M. Schneider,  N. Sergueev,  S. M. Sharada,  S. Sharma,  D. W. Small,  
 T. Stauch,  T. Stein,  Yu-Chuan Su,  A. J. W. Thom,  A. Tkatchenko,  
 T. Tsuchimochi,  N. M. Tubman,  L. Vogt,  M. L. Vidal,  O. Vydrov,  
 M. A. Watson,  J. Wenzel,  M. de Wergifosse,  T. A. Wesolowski,  A. White,  
 J. Witte,  A. Yamada,  Jun Yang,  K. Yao,  S. Yeganeh,  S. R. Yost,  
 Zhi-Qiang You,  A. Zech,  Igor Ying Zhang,  Xing Zhang,  Yan Zhao,  
 Ying Zhu,  B. R. Brooks,  G. K. L. Chan,  C. J. Cramer,  M. S. Gordon,  
 W. J. Hehre,  A. Klamt,  M. W. Schmidt,  C. D. Sherrill,  D. G. Truhlar,  
 A. Aspuru-Guzik,  R. Baer,  A. T. Bell,  N. A. Besley,  Jeng-Da Chai,  
 A. E. DePrince, III,  R. A. DiStasio Jr.,  A. Dreuw,  B. D. Dunietz,  
 T. R. Furlani,  Chao-Ping Hsu,  Yousung Jung,  Jing Kong,  D. S. Lambrecht,  
 WanZhen Liang,  C. Ochsenfeld,  V. A. Rassolov,  L. V. Slipchenko,  
 J. E. Subotnik,  T. Van Voorhis,  J. M. Herbert,  A. I. Krylov,  
 P. M. W. Gill,  M. Head-Gordon

 Contributors to earlier versions of Q-Chem not listed above: 
 R. D. Adamson,  B. Austin,  J. Baker,  G. J. O. Beran,  K. Brandhorst,  
 S. T. Brown,  E. F. C. Byrd,  A. K. Chakraborty,  C.-L. Cheng,  
 Siu Hung Chien,  D. M. Chipman,  D. L. Crittenden,  H. Dachsel,  
 R. J. Doerksen,  A. D. Dutoi,  L. Fusti-Molnar,  W. A. Goddard III,  
 A. Golubeva-Zadorozhnaya,  S. R. Gwaltney,  G. Hawkins,  A. Heyden,  
 S. Hirata,  G. Kedziora,  F. J. Keil,  C. Kelley,  Jihan Kim,  R. A. King,  
 R. Z. Khaliullin,  P. P. Korambath,  W. Kurlancheek,  A. M. Lee,  M. S. Lee,  
 S. V. Levchenko,  Ching Yeh Lin,  D. Liotard,  R. C. Lochan,  I. Lotan,  
 P. E. Maslen,  N. Nair,  D. P. O'Neill,  D. Neuhauser,  E. Neuscamman,  
 C. M. Oana,  R. Olson,  B. Peters,  R. Peverati,  P. A. Pieniazek,  
 Y. M. Rhee,  J. Ritchie,  M. A. Rohrdanz,  E. Rosta,  N. J. Russ,  
 H. F. Schaefer III,  N. E. Schultz,  N. Shenvi,  A. C. Simmonett,  A. Sodt,  
 D. Stuck,  K. S. Thanthiriwatte,  V. Vanovschi,  Tao Wang,  A. Warshel,  
 C. F. Williams,  Q. Wu,  X. Xu,  W. Zhang

 Please cite Q-Chem as follows:
 Y. Shao et al., Mol. Phys. 113, 184-215 (2015)
 DOI: 10.1080/00268976.2014.952696

 Q-Chem 5.2.1 for Intel X86 EM64T Linux

 Parts of Q-Chem use Armadillo 8.300.2 (Tropical Shenanigans).
 http://arma.sourceforge.net/

 Q-Chem begins on Tue Feb  8 13:24:00 2022  

Host: 
0

     Scratch files written to /gpfs/fs0/scratch/a/aspuru/rhickman/descriptor_computation/qchem299391//
 Jul1719 |scratch|qcdevops|jenkins|workspace|build_RNUM -1
Processing $rem in /scinet/niagara/software/commercial/qc52/config/preferences:
	 MEM_TOTAL  4000 
NAlpha2: 150
NElect   150
Mult     1

Checking the input file for inconsistencies... 	...done.

--------------------------------------------------------------
User input:
--------------------------------------------------------------
$molecule
0 1
C        -6.08256081620000   -1.10685999370000    0.24359096670000
C        -5.77360226450000    0.13417710910000   -0.10945941100000
C        -4.40377443780000    0.62305205530000   -0.23363841930000
C        -4.15738613740000    1.96105963900000   -0.55744343030000
C        -2.84702472670000    2.39620948240000   -0.65720912350000
C        -1.82289000930000    1.49401234950000   -0.43477158270000
C        -2.15990786330000    0.17478705560000   -0.12211630650000
C        -1.10295267490000   -0.82085398950000    0.11174288080000
C        -1.41187022420000   -2.17386464840000    0.26563408550000
C        -0.37449919440000   -3.06609814000000    0.46418592150000
C         0.92448284530000   -2.58827047700000    0.51801585190000
C         1.13666082060000   -1.21591640250000    0.36914773420000
C         2.49209128450000   -0.63454550340000    0.42654301490000
C         3.47196098420000   -1.16174695870000    1.27032210940000
C         4.72159054720000   -0.56552504480000    1.27884327680000
C         4.95711642610000    0.52382139860000    0.46069289880000
C         3.91543287130000    0.99513675740000   -0.34451992140000
C         4.03361481750000    2.14164727360000   -1.24048142670000
C         5.10282387360000    2.90973866350000   -1.40517515550000
N         2.71902189900000    0.41505565920000   -0.34825710270000
N         0.14205784310000   -0.36561802360000    0.16381875260000
N        -3.41528342590000   -0.24215852060000   -0.02662309430000
H        -7.10229822170000   -1.44055265630000    0.33058623980000
H        -5.30633802710000   -1.82087493000000    0.45700195970000
H        -6.54765459070000    0.86043556130000   -0.32144363920000
H        -4.98194514620000    2.63839511140000   -0.72359964650000
H        -2.62942804680000    3.42559998360000   -0.90556121410000
H        -0.78245777350000    1.76700117910000   -0.49548162590000
H        -2.44103858530000   -2.48863974770000    0.21780182160000
H        -0.57167840030000   -4.12351468730000    0.57304227280000
H         1.75597621710000   -3.26346493950000    0.64979946940000
H         3.25464634640000   -1.99830847720000    1.91607086670000
H         5.50348484210000   -0.94640378070000    1.92115551920000
H         5.92425666450000    0.99998640000000    0.44969075660000
H         3.12653449620000    2.33870170500000   -1.79521141470000
H         6.02501272020000    2.75237348490000   -0.87134479830000
H         5.09446626140000    3.73962350720000   -2.09098377200000
$end

$rem
BASIS = 6-31G*
GUI = 2
METHOD = B3LYP
PRINT_ORBITALS false
MOLDEN_FORMAT false
--------------------------------------------------------------
 ----------------------------------------------------------------
             Standard Nuclear Orientation (Angstroms)
    I     Atom           X                Y                Z
 ----------------------------------------------------------------
    1      C       6.1352398295    -0.8186315117    -0.0506288723
    2      C       5.7580434561     0.4512670313    -0.1237973958
    3      C       4.3634209743     0.8823864732    -0.1271994115
    4      C       4.0425930733     2.2368698969    -0.2623485389
    5      C       2.7101927530     2.6123151276    -0.2726379384
    6      C       1.7383672816     1.6364830191    -0.1477500098
    7      C       2.1486912214     0.3080657960    -0.0112521066
    8      C       1.1494753124    -0.7611703415     0.1351962800
    9      C       1.5357326178    -2.0694603710     0.4334124617
   10      C       0.5504063161    -3.0285764843     0.5778785438
   11      C      -0.7750777770    -2.6640178565     0.4082902126
   12      C      -1.0659758796    -1.3342540735     0.0958106283
   13      C      -2.4539595406    -0.8764150237    -0.1100117332
   14      C      -3.4115106561    -1.7060747703    -0.6972167477
   15      C      -4.6941499647    -1.2124119755    -0.8653258629
   16      C      -4.9832702349     0.0748731511    -0.4520165035
   17      C      -3.9612036078     0.8421915715     0.1156213503
   18      C      -4.1355915216     2.2154100004     0.5793673555
   19      C      -5.2461093065     2.9381779721     0.5111535624
   20      N      -2.7326982685     0.3593671635     0.2755040694
   21      N      -0.1207805977    -0.4144962705    -0.0268835837
   22      N       3.4251852507    -0.0516482784    -0.0012947817
   23      H       7.1717191247    -1.1092996486    -0.0530888602
   24      H       5.3998848724    -1.6017168800     0.0119314391
   25      H       6.4904916354     1.2452760448    -0.1917312411
   26      H       4.8277683618     2.9720652991    -0.3586619666
   27      H       2.4353677357     3.6526834561    -0.3764494547
   28      H       0.6844831620     1.8601666488    -0.1490705674
   29      H       2.5821987347    -2.2965508695     0.5512995930
   30      H       0.8082523234    -4.0494806611     0.8230910990
   31      H      -1.5668704833    -3.3860068013     0.5364775186
   32      H      -3.1533233090    -2.6986345079    -1.0322044263
   33      H      -5.4601953536    -1.8265977770    -1.3180317055
   34      H      -5.9766063696     0.4766993052    -0.5704794173
   35      H      -3.2348393362     2.6337199675     1.0071672967
   36      H      -6.1640224070     2.5634402566     0.0902282685
   37      H      -5.2781394640     3.9495120770     0.8789708529
 ----------------------------------------------------------------
 Molecular Point Group                 C1    NOp =  1
 Largest Abelian Subgroup              C1    NOp =  1
 Nuclear Repulsion Energy =        1549.06776680 hartrees
 There are       75 alpha and       75 beta electrons
 Requested basis set is 6-31G(d)
 There are 118 shells and 360 basis functions

 Total QAlloc Memory Limit   4000 MB
 Mega-Array Size       188 MB
 MEM_STATIC part       192 MB
 A cutoff of  1.0D-08 yielded   3157 shell pairs
 There are     32631 function pairs
 Smallest overlap matrix eigenvalue = 5.68E-04

 Scale SEOQF with 1.000000e-02/1.000000e-01/1.000000e+00

 Standard Electronic Orientation quadrupole field applied
 Nucleus-field energy     =     0.0000000130 hartrees
 Guess from superposition of atomic densities
 Warning:  Energy on first SCF cycle will be non-variational
 SAD guess density has 150.000000 electrons

 -----------------------------------------------------------------------
  General SCF calculation program by
  Eric Jon Sundstrom, Paul Horn, Yuezhi Mao, Dmitri Zuev, Alec White,
  David Stuck, Shaama M.S., Shane Yost, Joonho Lee, David Small,
  Daniel Levine, Susi Lehtola, Hugh Burton, Evgeny Epifanovsky,
  Bang C. Huynh
 -----------------------------------------------------------------------
 Exchange:     0.2000 Hartree-Fock + 0.0800 Slater + 0.7200 B88
 Correlation:  0.1900 VWN1RPA + 0.8100 LYP
 Using SG-1 standard quadrature grid
 A restricted SCF calculation will be
 performed using DIIS
 SCF converges when DIIS error is below 1.0e-05
 ---------------------------------------
  Cycle       Energy         DIIS error
 ---------------------------------------
    1    -902.8996032087      4.39e-02  
    2    -897.0105670204      3.93e-03  
    3    -897.0238858847      4.01e-03  
    4    -897.2683836260      8.87e-04  
    5    -897.2783527712      3.05e-04  
    6    -897.2794969866      1.34e-04  
    7    -897.2798009864      3.64e-05  
    8    -897.2798225200      1.11e-05  
    9    -897.2798244720      2.80e-06  Convergence criterion met
 ---------------------------------------
 SCF time:   CPU 85.77s  wall 86.00s 
 SCF   energy in the final basis set =     -897.2798244720
 Total energy in the final basis set =     -897.2798244720
 
 --------------------------------------------------------------
 
                    Orbital Energies (a.u.)
 --------------------------------------------------------------
 
 Alpha MOs
 -- Occupied --
-14.3202 -14.3195 -14.3193 -10.2252 -10.2241 -10.2236 -10.2213 -10.2204
-10.2192 -10.2058 -10.2024 -10.1986 -10.1962 -10.1957 -10.1954 -10.1908
-10.1883 -10.1864 -10.1838 -10.1835 -10.1831 -10.1759  -0.9620  -0.9487
 -0.9343  -0.8156  -0.8079  -0.8038  -0.7986  -0.7965  -0.7687  -0.7385
 -0.7223  -0.6607  -0.6565  -0.6433  -0.6306  -0.6040  -0.5992  -0.5646
 -0.5629  -0.5273  -0.5099  -0.5031  -0.4943  -0.4851  -0.4753  -0.4705
 -0.4549  -0.4513  -0.4353  -0.4271  -0.4208  -0.4188  -0.4099  -0.4078
 -0.4029  -0.3938  -0.3858  -0.3801  -0.3734  -0.3655  -0.3542  -0.3462
 -0.3150  -0.3058  -0.2942  -0.2901  -0.2740  -0.2598  -0.2508  -0.2492
 -0.2409  -0.2301  -0.2192
 -- Virtual --
 -0.0475  -0.0421  -0.0372  -0.0318   0.0076   0.0296   0.0621   0.0756
  0.0954   0.1042   0.1072   0.1236   0.1309   0.1356   0.1393   0.1487
  0.1573   0.1690   0.1762   0.1879   0.1937   0.2013   0.2050   0.2099
  0.2222   0.2353   0.2513   0.2597   0.2706   0.2766   0.2948   0.2963
  0.3080   0.3098   0.3129   0.3235   0.3432   0.3451   0.3554   0.3696
  0.3818   0.4051   0.4114   0.4283   0.4351   0.4609   0.4682   0.4786
  0.4897   0.5069   0.5150   0.5232   0.5271   0.5332   0.5449   0.5482
  0.5525   0.5626   0.5727   0.5744   0.5836   0.5876   0.5909   0.5937
  0.5951   0.5980   0.6056   0.6101   0.6120   0.6198   0.6251   0.6253
  0.6287   0.6325   0.6421   0.6502   0.6528   0.6550   0.6652   0.6706
  0.6812   0.6881   0.6917   0.6973   0.7037   0.7076   0.7128   0.7324
  0.7518   0.8019   0.8086   0.8131   0.8182   0.8234   0.8253   0.8305
  0.8382   0.8433   0.8563   0.8642   0.8704   0.8821   0.8875   0.8886
  0.8993   0.9060   0.9094   0.9130   0.9225   0.9357   0.9433   0.9549
  0.9591   0.9631   0.9765   0.9823   0.9880   0.9984   1.0024   1.0227
  1.0292   1.0479   1.0553   1.0775   1.0868   1.0966   1.1235   1.1302
  1.1427   1.1688   1.1828   1.1887   1.2129   1.2194   1.2376   1.2501
  1.2534   1.2666   1.2802   1.2841   1.3039   1.3156   1.3267   1.3403
  1.3414   1.3656   1.3718   1.3933   1.4116   1.4217   1.4435   1.4587
  1.4631   1.4703   1.4741   1.4779   1.4844   1.4930   1.4969   1.5159
  1.5232   1.5313   1.5463   1.5700   1.5797   1.5998   1.6640   1.6759
  1.6830   1.6999   1.7053   1.7321   1.7384   1.7583   1.7980   1.8112
  1.8159   1.8306   1.8341   1.8402   1.8422   1.8533   1.8812   1.8988
  1.9038   1.9365   1.9493   1.9550   1.9665   1.9689   1.9894   2.0050
  2.0183   2.0359   2.0485   2.0710   2.0919   2.1060   2.1337   2.1435
  2.1448   2.1547   2.1562   2.1677   2.1762   2.1943   2.2006   2.2115
  2.2205   2.2348   2.2427   2.2620   2.2684   2.2896   2.2981   2.3050
  2.3285   2.3335   2.3413   2.3504   2.3533   2.3699   2.3769   2.4229
  2.4312   2.4384   2.4937   2.5169   2.5285   2.5497   2.5628   2.5821
  2.6107   2.6268   2.6355   2.6499   2.6626   2.6710   2.6797   2.6937
  2.6984   2.7152   2.7386   2.7455   2.7691   2.7812   2.8086   2.8349
  2.8463   2.8646   2.8920   2.9053   2.9361   2.9495   2.9592   2.9746
  3.1165   3.1774   3.2851   3.3502   3.4041   3.4806   3.5502   4.0509
  4.0665   4.0769   4.1009   4.1225   4.1373   4.1437   4.1561   4.1771
  4.1985   4.2341   4.2649   4.3021   4.3083   4.3792   4.4559   4.4602
  4.4761   4.5219   4.6121   4.6926   4.7500
 --------------------------------------------------------------
 
          Ground-State Mulliken Net Atomic Charges

     Atom                 Charge (a.u.)
  ----------------------------------------
      1 C                    -0.333818
      2 C                    -0.110322
      3 C                     0.330206
      4 C                    -0.186085
      5 C                    -0.097993
      6 C                    -0.157833
      7 C                     0.256915
      8 C                     0.266994
      9 C                    -0.153494
     10 C                    -0.103355
     11 C                    -0.169981
     12 C                     0.259906
     13 C                     0.248431
     14 C                    -0.167696
     15 C                    -0.102163
     16 C                    -0.173562
     17 C                     0.308684
     18 C                    -0.091932
     19 C                    -0.347590
     20 N                    -0.532724
     21 N                    -0.537361
     22 N                    -0.582862
     23 H                     0.140515
     24 H                     0.164777
     25 H                     0.124462
     26 H                     0.133850
     27 H                     0.140000
     28 H                     0.179051
     29 H                     0.164328
     30 H                     0.139885
     31 H                     0.137937
     32 H                     0.138500
     33 H                     0.139901
     34 H                     0.135044
     35 H                     0.147989
     36 H                     0.141970
     37 H                     0.149425
  ----------------------------------------
  Sum of atomic charges =     0.000000

 -----------------------------------------------------------------
                    Cartesian Multipole Moments
 -----------------------------------------------------------------
    Charge (ESU x 10^10)
                 0.0000
    Dipole Moment (Debye)
         X      -1.3809      Y      -0.7657      Z      -0.4778
       Tot       1.6497
    Quadrupole Moments (Debye-Ang)
        XX    -103.5590     XY       6.1171     YY    -106.7163
        XZ       3.3652     YZ      -0.0881     ZZ    -129.7056
    Octopole Moments (Debye-Ang^2)
       XXX     -44.3752    XXY      19.9347    XYY       3.0894
       YYY      -2.3146    XXZ     -24.5070    XYZ     -14.7774
       YYZ       5.7294    XZZ      -5.7870    YZZ      -2.7655
       ZZZ      -0.1521
    Hexadecapole Moments (Debye-Ang^3)
      XXXX   -8711.3913   XXXY      33.0993   XXYY   -1811.3165
      XYYY      14.1387   YYYY   -2129.3076   XXXZ     111.3472
      XXYZ      24.3818   XYYZ     -10.4217   YYYZ      -4.6339
      XXZZ   -1776.8577   XYZZ       7.3272   YYZZ    -448.7503
      XZZZ       7.1855   YZZZ       4.2807   ZZZZ    -260.3244
 -----------------------------------------------------------------
Archival summary:
1\1\nia2015.scinet.local\SP\ProcedureUnspecified\6-31G*\31915\rhickman\TueFeb813:25:272022TueFeb813:25:272022\0\\#,ProcedureUnspecified,6-31G*,\\0,1\N\C,1,1.32454\C,1,1.32665,2,119.373\C,3,1.39633,1,122.398,2,-0.0207331,0\H,4,1.07729,3,119.313,1,179.79,0\C,4,1.38262,3,118.368,1,-0.738578,0\H,6,1.08114,4,120.583,3,-179.095,0\C,6,1.38513,4,119.117,3,0.707362,0\H,8,1.07918,6,120.762,4,-178.626,0\C,3,1.47076,1,116.639,2,-179.86,0\N,10,1.32625,3,117.127,1,-172.615,0\C,11,1.32987,10,119.198,3,-179.823,0\C,10,1.39703,3,120.098,1,7.62927,0\H,13,1.07736,10,119.003,3,-0.328279,0\C,13,1.38286,10,118.257,3,179.513,0\H,15,1.08105,13,120.605,10,-179.756,0\C,15,1.38432,13,118.97,10,0.224203,0\H,17,1.07995,15,120.963,13,179.935,0\C,12,1.45974,11,117.8,10,-179.484,0\H,19,1.08238,12,115.449,11,-177.835,0\C,19,1.32675,12,123.671,11,2.50439,0\H,21,1.07605,19,120.363,12,-0.0650981,0\H,21,1.07647,19,122.145,12,179.804,0\C,2,1.47597,1,116.279,3,-179.476,0\N,24,1.32419,2,116.541,1,-33.527,0\C,25,1.32963,24,119.892,2,179.699,0\C,24,1.39644,2,121.277,1,145.7,0\H,27,1.07891,24,120.867,2,-1.15099,0\C,27,1.3846,24,118.323,2,-179.774,0\H,29,1.0812,27,120.307,24,179.887,0\C,29,1.38258,27,119.3,24,0.0836132,0\H,31,1.07806,29,120.456,27,-179.764,0\C,26,1.45986,25,114.44,24,-179.915,0\H,33,1.08137,26,112.957,25,-1.18052,0\C,33,1.32676,26,126.59,25,178.515,0\H,35,1.07662,33,121.269,26,-179.817,0\H,35,1.07711,33,122.947,26,0.0915915,0\\\@

 Total job time:  87.19s(wall), 86.12s(cpu) 
 Tue Feb  8 13:25:27 2022

        *************************************************************
        *                                                           *
        *  Thank you very much for using Q-Chem.  Have a nice day.  *
        *                                                           *
        *************************************************************


