
Running Job 1 of 1 tidas/B031/conf-3/spe_input.inp
qchem tidas/B031/conf-3/spe_input.inp_134483.0 /home/a/aspuru/seifridm/acdc_laser/descriptor_computation/qchem134483/ 0
/gpfs/fs1/scinet/niagara/software/commercial/qc54/exe/qcprog.exe_s tidas/B031/conf-3/spe_input.inp_134483.0 /home/a/aspuru/seifridm/acdc_laser/descriptor_computation/qchem134483/
                  Welcome to Q-Chem
     A Quantum Leap Into The Future Of Chemistry


 Q-Chem 5.4, Q-Chem, Inc., Pleasanton, CA (2021)

 License issued to: SRG Alan Aspuru-Guzik, University of Toronto

 E. Epifanovsky,  A. T. B. Gilbert,  Xintian Feng,  Joonho Lee,  Yuezhi Mao,  
 N. Mardirossian,  P. Pokhilko,  A. White,  M. Wormit,  M. P. Coons,  
 A. L. Dempwolff,  Zhengting Gan,  D. Hait,  P. R. Horn,  L. D. Jacobson,  
 I. Kaliman,  J. Kussmann,  A. W. Lange,  Ka Un Lao,  D. S. Levine,  Jie Liu,  
 S. C. McKenzie,  A. F. Morrison,  K. Nanda,  F. Plasser,  D. R. Rehn,  
 M. L. Vidal,  Zhi-Qiang You,  Ying Zhu,  B. Alam,  B. Albrecht,  
 A. Aldossary,  E. Alguire,  J. H. Andersen,  D. Barton,  K. Begam,  A. Behn,  
 Y. A. Bernard,  E. J. Berquist,  H. Burton,  A. Carreras,  K. Carter-Fenk,  
 Romit Chakraborty,  A. D. Chien,  K. D. Closser,  V. Cofer-Shabica,  
 S. Dasgupta,  Jia Deng,  M. de Wergifosse,  M. Diedenhofen,  Hainam Do,  
 S. Ehlert,  Po-Tung Fang,  S. Fatehi,  Qingguo Feng,  T. Friedhoff,  
 J. Gayvert,  Qinghui Ge,  G. Gidofalvi,  M. Goldey,  J. Gomes,  
 C. Gonzalez-Espinoza,  S. Gulania,  A. Gunina,  M. W. D. Hanson-Heine,  
 P. H. P. Harbach,  A. W. Hauser,  M. F. Herbst,  M. Hernandez Vera,  
 M. Hodecker,  Z. C. Holden,  S. Houck,  Xunkun Huang,  Kerwin Hui,  
 B. C. Huynh,  M. Ivanov,  Hyunjun Ji,  Hanjie Jiang,  B. Kaduk,  S. Kaehler,  
 K. Khistyaev,  Jaehoon Kim,  P. Klunzinger,  Z. Koczor-Benda,  
 Joong Hoon Koh,  D. Kosenkov,  L. Koulias,  T. Kowalczyk,  C. M. Krauter,  
 K. Kue,  A. Kunitsa,  T. Kus,  A. Landau,  K. V. Lawler,  D. Lefrancois,  
 S. Lehtola,  Rain Li,  Yi-Pei Li,  Jiashu Liang,  M. Liebenthal,  
 Hung-Hsuan Lin,  You-Sheng Lin,  Fenglai Liu,  Kuan-Yu Liu,  
 M. Loipersberger,  A. Luenser,  A. Manjanath,  P. Manohar,  E. Mansoor,  
 S. F. Manzer,  Shan-Ping Mao,  A. V. Marenich,  T. Markovich,  S. Mason,  
 S. A. Maurer,  P. F. McLaughlin,  M. F. S. J. Menger,  J.-M. Mewes,  
 S. A. Mewes,  P. Morgante,  J. W. Mullinax,  K. J. Oosterbaan,  G. Paran,  
 Alexander C. Paul,  Suranjan K. Paul,  F. Pavosevic,  Zheng Pei,  S. Prager,  
 E. I. Proynov,  E. Ramos,  B. Rana,  A. E. Rask,  A. Rettig,  R. M. Richard,  
 F. Rob,  E. Rossomme,  T. Scheele,  M. Scheurer,  M. Schneider,  
 N. Sergueev,  S. M. Sharada,  W. Skomorowski,  D. W. Small,  C. J. Stein,  
 Yu-Chuan Su,  E. J. Sundstrom,  Zhen Tao,  J. Thirman,  T. Tsuchimochi,  
 N. M. Tubman,  S. P. Veccham,  O. Vydrov,  J. Wenzel,  J. Witte,  A. Yamada,  
 Kun Yao,  S. Yeganeh,  S. R. Yost,  A. Zech,  Igor Ying Zhang,  Xing Zhang,  
 Yu Zhang,  D. Zuev,  A. Aspuru-Guzik,  A. T. Bell,  N. A. Besley,  
 K. B. Bravaya,  B. R. Brooks,  D. Casanova,  Jeng-Da Chai,  S. Coriani,  
 C. J. Cramer,  A. E. DePrince, III,  R. A. DiStasio Jr.,  A. Dreuw,  
 B. D. Dunietz,  T. R. Furlani,  W. A. Goddard III,  S. Grimme,  
 S. Hammes-Schiffer,  T. Head-Gordon,  W. J. Hehre,  Chao-Ping Hsu,  
 T.-C. Jagau,  Yousung Jung,  A. Klamt,  Jing Kong,  D. S. Lambrecht,  
 WanZhen Liang,  N. J. Mayhall,  C. W. McCurdy,  J. B. Neaton,  T. Neudecker,  
 C. Ochsenfeld,  J. A. Parkhill,  R. Peverati,  V. A. Rassolov,  Yihan Shao,  
 L. V. Slipchenko,  R. P. Steele,  J. E. Subotnik,  A. J. W. Thom,  
 A. Tkatchenko,  D. G. Truhlar,  T. Van Voorhis,  T. A. Wesolowski,  
 K. B. Whaley,  H. L. Woodcock III,  P. M. Zimmerman,  S. Faraji,  
 P. M. W. Gill,  M. Head-Gordon,  J. M. Herbert,  A. I. Krylov

 Additional authors since Version 5.4.0: 
 Chandrima Chakravarty,  L. Cunha,  R. Kang,  Yongbin Kim,  S. Kotaru,  
 Shaozhi Li,  Xiangyuan Li,  F. Matz,  A. Molle,  V. Parravicini,  
 Haisheng Ren,  Hengyuan Shen,  Yingli Su,  Hung-Yi Tsai,  C. Utku,  
 Fang Wang,  Jeff Yang,  F. Zeller

 Contributors to earlier versions of Q-Chem not listed above: 
 R. D. Adamson,  B. Austin,  R. Baer,  J. Baker,  G. J. O. Beran,  
 K. Brandhorst,  S. T. Brown,  E. F. C. Byrd,  Arup K. Chakraborty,  
 G. K. L. Chan,  Chun-Min Chang,  Yunqing Chen,  C.-L. Cheng,  
 Siu Hung Chien,  D. M. Chipman,  D. L. Crittenden,  H. Dachsel,  
 R. J. Doerksen,  A. D. Dutoi,  R. G. Edgar,  J. Fosso-Tande,  
 L. Fusti-Molnar,  D. Ghosh,  A. Ghysels,  A. Golubeva-Zadorozhnaya,  
 J. Gonthier,  M. S. Gordon,  S. R. Gwaltney,  G. Hawkins,  J. E. Herr,  
 A. Heyden,  S. Hirata,  E. G. Hohenstein,  G. Kedziora,  F. J. Keil,  
 C. Kelley,  Jihan Kim,  R. A. King,  R. Z. Khaliullin,  P. P. Korambath,  
 W. Kurlancheek,  A. Laurent,  A. M. Lee,  M. S. Lee,  S. V. Levchenko,  
 Ching Yeh Lin,  D. Liotard,  E. Livshits,  R. C. Lochan,  I. Lotan,  
 L. A. Martinez-Martinez,  P. E. Maslen,  N. Nair,  D. P. O'Neill,  
 D. Neuhauser,  E. Neuscamman,  C. M. Oana,  R. Olivares-Amaya,  R. Olson,  
 T. M. Perrine,  B. Peters,  P. A. Pieniazek,  A. Prociuk,  Y. M. Rhee,  
 J. Ritchie,  M. A. Rohrdanz,  E. Rosta,  N. J. Russ,  H. F. Schaefer III,  
 M. W. Schmidt,  N. E. Schultz,  S. Sharma,  N. Shenvi,  C. D. Sherrill,  
 A. C. Simmonett,  A. Sodt,  T. Stein,  D. Stuck,  K. S. Thanthiriwatte,  
 V. Vanovschi,  L. Vogt,  Tao Wang,  A. Warshel,  M. A. Watson,  
 C. F. Williams,  Q. Wu,  X. Xu,  Jun Yang,  W. Zhang,  Yan Zhao

   Please cite Q-Chem as follows:
  "Software for the frontiers of quantum chemistry:
   An overview of developments in the Q-Chem 5 package"
   J. Chem. Phys. 155, 084801 (2021)
   https://doi.org/10.1063/5.0055522 (open access)

 Q-Chem 5.4.2 for Intel X86 EM64T Linux

 Parts of Q-Chem use Armadillo 9.900.5 (Nocturnal Misbehaviour).
 http://arma.sourceforge.net/

 Q-Chem begins on Fri Aug 12 13:11:43 2022  

 Host: 
0

     Scratch files written to /home/a/aspuru/seifridm/acdc_laser/descriptor_computation/qchem134483//
 Dec1321 |scratch|qcdevops|jenkins|workspace|build_RNUM 6959   
 Processing $rem in /gpfs/fs1/scinet/niagara/software/commercial/qc54/config/preferences:
 Processing $rem in /home/a/aspuru/seifridm/.qchemrc:

 Checking the input file for inconsistencies... 	...done.

--------------------------------------------------------------
User input:
--------------------------------------------------------------
$molecule
0 1
C           -4.48001099600000        0.68915934590000       -0.49222741760000
C           -3.66942988190000       -0.05976594070000        0.24213831120000
C           -2.21074531180000       -0.12283921010000        0.13604763960000
C           -1.61969074830000       -1.38222942000000        0.24764466730000
C           -0.25839499080000       -1.58846818380000        0.13237940760000
C            0.30024755690000       -2.97447984750000        0.25789625000000
C            0.56879779820000       -0.47313718550000       -0.07887162410000
C            2.00716620150000       -0.65568937960000       -0.21954703160000
C            2.95794725880000        0.24843134390000       -0.04349514390000
F            2.82763289580000        1.51861092450000        0.32558126670000
F            4.25564266110000       -0.01860220620000       -0.20635090760000
C           -0.01538657580000        0.78889615340000       -0.15499170140000
C           -1.38318074300000        0.99037188960000       -0.05304175680000
C           -1.90536749530000        2.39418761110000       -0.11284354920000
H           -5.54893618420000        0.64686556840000       -0.36611007660000
H           -4.11911917800000        1.34579402900000       -1.26402989970000
H           -4.09606560960000       -0.74717837790000        0.96375366620000
H           -2.26345122160000       -2.23514315190000        0.41506782410000
H           -0.49104054000000       -3.67985662370000        0.49846187470000
H            1.05281423100000       -3.02076528020000        1.04355777670000
H            0.76272856680000       -3.29140459050000       -0.67694184780000
H            2.36106587840000       -1.63826398620000       -0.49171202660000
H            0.61298356200000        1.65156369480000       -0.31183909640000
H           -1.16110963100000        3.08504739790000        0.27765293380000
H           -2.82157021530000        2.49618441410000        0.46340935470000
H           -2.11500734890000        2.68112400110000       -1.14330802230000
$end

$rem
BASIS = 6-31G*
GUI = 2
METHOD = B3LYP
PRINT_ORBITALS false
MOLDEN_FORMAT false
$end
--------------------------------------------------------------
 ----------------------------------------------------------------
             Standard Nuclear Orientation (Angstroms)
    I     Atom           X                Y                Z
 ----------------------------------------------------------------
    1      C       4.4016731251    -0.4353169913    -0.4248657803
    2      C       3.5352293703     0.3029839082     0.2544065160
    3      C       2.0765866542     0.2569823632     0.1393438037
    4      C       1.3988006234     1.4767716636     0.1634944453
    5      C       0.0274630798     1.5794322188     0.0299249908
    6      C      -0.6268766886     2.9284424372     0.0595088339
    7      C      -0.7187188661     0.3974972943    -0.1082071287
    8      C      -2.1650943380     0.4695034025    -0.2657877496
    9      C      -3.0523325532    -0.4847836346    -0.0322117042
   10      F      -2.8373052975    -1.7150968224     0.4223739709
   11      F      -4.3640524223    -0.3203821310    -0.2171587362
   12      C      -0.0478901534    -0.8230159864    -0.0968068038
   13      C       1.3297076409    -0.9213783896     0.0231777868
   14      C       1.9483825021    -2.2862306692     0.0602386793
   15      H       5.4640427553    -0.3102564180    -0.2982718346
   16      H       4.0934059588    -1.1659094912    -1.1517062277
   17      H       3.9073535639     1.0654161604     0.9293163388
   18      H       1.9805358391     2.3817935319     0.2750267330
   19      H       0.1116584311     3.7018188773     0.2544955703
   20      H      -1.3871733260     2.9748972227     0.8376823048
   21      H      -1.1026287532     3.1487926933    -0.8961888087
   22      H      -2.5840167552     1.4044995001    -0.6049896499
   23      H      -0.6136822103    -1.7359622771    -0.1970756471
   24      H       1.2506515362    -2.9994487208     0.4940428135
   25      H       2.8647585424    -2.2851576982     0.6451762681
   26      H       2.1857315160    -2.6264985002    -0.9477403082
 ----------------------------------------------------------------
 Molecular Point Group                 C1    NOp =  1
 Largest Abelian Subgroup              C1    NOp =  1
 Nuclear Repulsion Energy =         844.59985073 hartrees
 There are       51 alpha and       51 beta electrons
 Requested basis set is 6-31G(d)
 There are 80 shells and 234 basis functions

 Total QAlloc Memory Limit   8000 MB
 Mega-Array Size       188 MB
 MEM_STATIC part       192 MB
 A cutoff of  1.0D-08 yielded   2116 shell pairs
 There are     19337 function pairs
 Smallest overlap matrix eigenvalue = 2.92E-04

 Scale SEOQF with 1.000000e-02/1.000000e-01/1.000000e+00

 Standard Electronic Orientation quadrupole field applied
 Nucleus-field energy     =     0.0000000072 hartrees
 Guess from superposition of atomic densities
 Warning:  Energy on first SCF cycle will be non-variational
 SAD guess density has 102.000000 electrons

 -----------------------------------------------------------------------
  General SCF calculation program by
  Eric Jon Sundstrom, Paul Horn, Yuezhi Mao, Dmitri Zuev, Alec White,
  David Stuck, Shaama M.S., Shane Yost, Joonho Lee, David Small,
  Daniel Levine, Susi Lehtola, Hugh Burton, Evgeny Epifanovsky,
  Bang C. Huynh
 -----------------------------------------------------------------------
 Exchange:     0.2000 Hartree-Fock + 0.0800 Slater + 0.7200 B88
 Correlation:  0.1900 VWN1RPA + 0.8100 LYP
 Using SG-1 standard quadrature grid
 A restricted SCF calculation will be
 performed using DIIS
 SCF converges when DIIS error is below 1.0e-05
 ---------------------------------------
  Cycle       Energy         DIIS error
 ---------------------------------------
    1    -667.2125268278      5.18e-02  
    2    -663.8819405629      6.01e-03  
    3    -663.7045895759      7.81e-03  
    4    -664.1265815899      1.53e-03  
    5    -664.1424764166      4.12e-04  
    6    -664.1432507082      2.27e-04  
    7    -664.1436147815      5.51e-05  
    8    -664.1436338327      1.79e-05  
    9    -664.1436358585      6.70e-06  Convergence criterion met
 ---------------------------------------
 SCF time:   CPU 61.92s  wall 66.00s 
 SCF   energy in the final basis set =     -664.1436358585
 Total energy in the final basis set =     -664.1436358585
 
 --------------------------------------------------------------
 
                    Orbital Energies (a.u.)
 --------------------------------------------------------------
 
 Alpha MOs
 -- Occupied --
-24.7411 -24.7313 -10.3541 -10.1995 -10.1982 -10.1919 -10.1901 -10.1888
-10.1884 -10.1830 -10.1805 -10.1789 -10.1786 -10.1742  -1.2817  -1.2209
 -0.8711  -0.8181  -0.7853  -0.7734  -0.7241  -0.7200  -0.6577  -0.6440
 -0.6095  -0.5966  -0.5704  -0.5405  -0.5204  -0.5158  -0.4917  -0.4718
 -0.4557  -0.4387  -0.4343  -0.4301  -0.4257  -0.4252  -0.4148  -0.4086
 -0.4021  -0.3930  -0.3770  -0.3691  -0.3521  -0.3340  -0.3303  -0.3033
 -0.2635  -0.2369  -0.2090
 -- Virtual --
 -0.0344   0.0065   0.0258   0.0742   0.0924   0.1118   0.1182   0.1292
  0.1405   0.1445   0.1561   0.1608   0.1626   0.1827   0.1866   0.1966
  0.2068   0.2199   0.2331   0.2530   0.2586   0.3097   0.3226   0.3357
  0.3485   0.3794   0.3870   0.4169   0.4305   0.4842   0.4873   0.5016
  0.5115   0.5196   0.5282   0.5478   0.5556   0.5578   0.5641   0.5719
  0.5881   0.5894   0.6049   0.6083   0.6197   0.6276   0.6401   0.6536
  0.6858   0.6922   0.7181   0.7242   0.7403   0.7529   0.7626   0.7743
  0.7810   0.7951   0.8182   0.8347   0.8510   0.8546   0.8607   0.8741
  0.8933   0.9066   0.9256   0.9334   0.9546   0.9666   0.9756   0.9923
  0.9953   1.0054   1.0172   1.0366   1.0634   1.1035   1.1180   1.1246
  1.1402   1.1674   1.1905   1.1949   1.2051   1.2299   1.2472   1.2620
  1.2848   1.2950   1.3260   1.3535   1.3734   1.3985   1.4093   1.4346
  1.4545   1.4697   1.4811   1.4920   1.5119   1.5355   1.5463   1.5654
  1.6122   1.6847   1.6967   1.7418   1.7712   1.7876   1.7980   1.8024
  1.8320   1.8347   1.8475   1.8573   1.8822   1.8940   1.9051   1.9319
  1.9362   1.9576   1.9703   1.9783   2.0000   2.0170   2.0235   2.0373
  2.0681   2.0930   2.1021   2.1345   2.1650   2.1730   2.2107   2.2215
  2.2383   2.2389   2.2632   2.2796   2.3061   2.3274   2.3476   2.3694
  2.3748   2.4058   2.4211   2.4317   2.4753   2.5206   2.5345   2.5456
  2.5966   2.6551   2.6813   2.7211   2.7340   2.7602   2.7894   2.8412
  2.8794   2.9152   2.9607   3.0353   3.0383   3.1400   3.1834   3.3179
  3.4816   4.0899   4.1072   4.1259   4.1369   4.1655   4.2215   4.2592
  4.2769   4.3517   4.4181   4.5368   4.7449   4.8257   5.2685
 --------------------------------------------------------------
 
          Ground-State Mulliken Net Atomic Charges

     Atom                 Charge (a.u.)
  ----------------------------------------
      1 C                    -0.336644
      2 C                    -0.140072
      3 C                     0.116198
      4 C                    -0.264035
      5 C                     0.132448
      6 C                    -0.538522
      7 C                     0.148462
      8 C                    -0.313313
      9 C                     0.550875
     10 F                    -0.235476
     11 F                    -0.251253
     12 C                    -0.265111
     13 C                     0.131043
     14 C                    -0.536235
     15 H                     0.141783
     16 H                     0.147845
     17 H                     0.133673
     18 H                     0.118423
     19 H                     0.159427
     20 H                     0.165556
     21 H                     0.162281
     22 H                     0.160615
     23 H                     0.127880
     24 H                     0.155246
     25 H                     0.168085
     26 H                     0.160820
  ----------------------------------------
  Sum of atomic charges =     0.000000

 -----------------------------------------------------------------
                    Cartesian Multipole Moments
 -----------------------------------------------------------------
    Charge (ESU x 10^10)
                 0.0000
    Dipole Moment (Debye)
         X       0.8350      Y       0.8337      Z      -0.1605
       Tot       1.1908
    Quadrupole Moments (Debye-Ang)
        XX     -80.3312     XY      -2.3829     YY     -75.5262
        XZ       0.7957     YZ       1.4784     ZZ     -81.8807
    Octopole Moments (Debye-Ang^2)
       XXX     -15.4679    XXY       1.7379    XYY     -16.5265
       YYY      -8.7421    XXZ       1.5146    XYZ       6.0568
       YYZ      -0.5848    XZZ     -21.7199    YZZ      -6.8503
       ZZZ       1.5847
    Hexadecapole Moments (Debye-Ang^3)
      XXXX   -3041.6504   XXXY      28.9498   XXYY    -686.8497
      XYYY      53.7056   YYYY   -1084.6790   XXXZ      -1.9294
      XXYZ      20.1211   XYYZ       4.2544   YYYZ      -2.0577
      XXZZ    -531.3953   XYZZ      11.2860   YYZZ    -202.3258
      XZZZ      -4.2354   YZZZ      -4.0417   ZZZZ    -124.0030
 -----------------------------------------------------------------
 Total job time:  69.80s(wall), 62.45s(cpu) 
 Fri Aug 12 13:12:52 2022

        *************************************************************
        *                                                           *
        *  Thank you very much for using Q-Chem.  Have a nice day.  *
        *                                                           *
        *************************************************************


