
Running Job 1 of 1 fragments/A012/conf-0/spe_input.inp
qchem fragments/A012/conf-0/spe_input.inp_166105.0 /gpfs/fs0/scratch/a/aspuru/rhickman/descriptor_computation/qchem166105/ 0
/scinet/niagara/software/commercial/qc52/exe/qcprog.exe_s fragments/A012/conf-0/spe_input.inp_166105.0 /gpfs/fs0/scratch/a/aspuru/rhickman/descriptor_computation/qchem166105/
                  Welcome to Q-Chem
     A Quantum Leap Into The Future Of Chemistry


 Q-Chem 5.2, Q-Chem, Inc., Pleasanton, CA (2019)

 License issued to: SRG Alan Aspuru-Guzik, University of Toronto

 Yihan Shao,  Zhengting Gan,  E. Epifanovsky,  A. T. B. Gilbert,  M. Wormit,  
 J. Kussmann,  A. W. Lange,  A. Behn,  Jia Deng,  Xintian Feng,  D. Ghosh,  
 M. Goldey,  P. R. Horn,  L. D. Jacobson,  I. Kaliman,  T. Kus,  A. Landau,  
 Jie Liu,  E. I. Proynov,  R. M. Richard,  R. P. Steele,  E. J. Sundstrom,  
 H. L. Woodcock III,  P. M. Zimmerman,  D. Zuev,  B. Albrecht,  E. Alguire,  
 S. A. Baeppler,  D. Barton,  Z. Benda,  Y. A. Bernard,  E. J. Berquist,  
 K. B. Bravaya,  H. Burton,  D. Casanova,  Chun-Min Chang,  Yunqing Chen,  
 A. Chien,  K. D. Closser,  M. P. Coons,  S. Coriani,  S. Dasgupta,  
 A. L. Dempwolff,  M. Diedenhofen,  Hainam Do,  R. G. Edgar,  Po-Tung Fang,  
 S. Faraji,  S. Fatehi,  Qingguo Feng,  K. D. Fenk,  J. Fosso-Tande,  
 J. Gayvert,  Qinghui Ge,  A. Ghysels,  G. Gidofalvi,  J. Gomes,  
 J. Gonthier,  A. Gunina,  D. Hait,  M. W. D. Hanson-Heine,  
 P. H. P. Harbach,  A. W. Hauser,  M. F. Herbst,  J. E. Herr,  
 E. G. Hohenstein,  Z. C. Holden,  Kerwin Hui,  B. C. Huynh,  T.-C. Jagau,  
 Hyunjun Ji,  B. Kaduk,  K. Khistyaev,  Jaehoon Kim,  P. Klunzinger,  K. Koh,  
 D. Kosenkov,  L. Koulias,  T. Kowalczyk,  C. M. Krauter,  A. Kunitsa,  
 Ka Un Lao,  A. Laurent,  K. V. Lawler,  Joonho Lee,  D. Lefrancois,  
 S. Lehtola,  D. S. Levine,  Yi-Pei Li,  You-Sheng Lin,  Fenglai Liu,  
 E. Livshits,  A. Luenser,  P. Manohar,  E. Mansoor,  S. F. Manzer,  
 Shan-Ping Mao,  Yuezhi Mao,  N. Mardirossian,  A. V. Marenich,  
 T. Markovich,  L. A. Martinez-Martinez,  S. A. Maurer,  N. J. Mayhall,  
 S. C. McKenzie,  J.-M. Mewes,  P. Morgante,  A. F. Morrison,  
 J. W. Mullinax,  K. Nanda,  T. S. Nguyen-Beck,  R. Olivares-Amaya,  
 J. A. Parkhill,  Zheng Pei,  T. M. Perrine,  F. Plasser,  P. Pokhilko,  
 S. Prager,  A. Prociuk,  E. Ramos,  D. R. Rehn,  F. Rob,  M. Scheurer,  
 M. Schneider,  N. Sergueev,  S. M. Sharada,  S. Sharma,  D. W. Small,  
 T. Stauch,  T. Stein,  Yu-Chuan Su,  A. J. W. Thom,  A. Tkatchenko,  
 T. Tsuchimochi,  N. M. Tubman,  L. Vogt,  M. L. Vidal,  O. Vydrov,  
 M. A. Watson,  J. Wenzel,  M. de Wergifosse,  T. A. Wesolowski,  A. White,  
 J. Witte,  A. Yamada,  Jun Yang,  K. Yao,  S. Yeganeh,  S. R. Yost,  
 Zhi-Qiang You,  A. Zech,  Igor Ying Zhang,  Xing Zhang,  Yan Zhao,  
 Ying Zhu,  B. R. Brooks,  G. K. L. Chan,  C. J. Cramer,  M. S. Gordon,  
 W. J. Hehre,  A. Klamt,  M. W. Schmidt,  C. D. Sherrill,  D. G. Truhlar,  
 A. Aspuru-Guzik,  R. Baer,  A. T. Bell,  N. A. Besley,  Jeng-Da Chai,  
 A. E. DePrince, III,  R. A. DiStasio Jr.,  A. Dreuw,  B. D. Dunietz,  
 T. R. Furlani,  Chao-Ping Hsu,  Yousung Jung,  Jing Kong,  D. S. Lambrecht,  
 WanZhen Liang,  C. Ochsenfeld,  V. A. Rassolov,  L. V. Slipchenko,  
 J. E. Subotnik,  T. Van Voorhis,  J. M. Herbert,  A. I. Krylov,  
 P. M. W. Gill,  M. Head-Gordon

 Contributors to earlier versions of Q-Chem not listed above: 
 R. D. Adamson,  B. Austin,  J. Baker,  G. J. O. Beran,  K. Brandhorst,  
 S. T. Brown,  E. F. C. Byrd,  A. K. Chakraborty,  C.-L. Cheng,  
 Siu Hung Chien,  D. M. Chipman,  D. L. Crittenden,  H. Dachsel,  
 R. J. Doerksen,  A. D. Dutoi,  L. Fusti-Molnar,  W. A. Goddard III,  
 A. Golubeva-Zadorozhnaya,  S. R. Gwaltney,  G. Hawkins,  A. Heyden,  
 S. Hirata,  G. Kedziora,  F. J. Keil,  C. Kelley,  Jihan Kim,  R. A. King,  
 R. Z. Khaliullin,  P. P. Korambath,  W. Kurlancheek,  A. M. Lee,  M. S. Lee,  
 S. V. Levchenko,  Ching Yeh Lin,  D. Liotard,  R. C. Lochan,  I. Lotan,  
 P. E. Maslen,  N. Nair,  D. P. O'Neill,  D. Neuhauser,  E. Neuscamman,  
 C. M. Oana,  R. Olson,  B. Peters,  R. Peverati,  P. A. Pieniazek,  
 Y. M. Rhee,  J. Ritchie,  M. A. Rohrdanz,  E. Rosta,  N. J. Russ,  
 H. F. Schaefer III,  N. E. Schultz,  N. Shenvi,  A. C. Simmonett,  A. Sodt,  
 D. Stuck,  K. S. Thanthiriwatte,  V. Vanovschi,  Tao Wang,  A. Warshel,  
 C. F. Williams,  Q. Wu,  X. Xu,  W. Zhang

 Please cite Q-Chem as follows:
 Y. Shao et al., Mol. Phys. 113, 184-215 (2015)
 DOI: 10.1080/00268976.2014.952696

 Q-Chem 5.2.1 for Intel X86 EM64T Linux

 Parts of Q-Chem use Armadillo 8.300.2 (Tropical Shenanigans).
 http://arma.sourceforge.net/

 Q-Chem begins on Mon Feb  7 18:26:47 2022  

Host: 
0

     Scratch files written to /gpfs/fs0/scratch/a/aspuru/rhickman/descriptor_computation/qchem166105//
 Jul1719 |scratch|qcdevops|jenkins|workspace|build_RNUM -1
Processing $rem in /scinet/niagara/software/commercial/qc52/config/preferences:
	 MEM_TOTAL  4000 
NAlpha2: 134
NElect   134
Mult     1

Checking the input file for inconsistencies... 	...done.

--------------------------------------------------------------
User input:
--------------------------------------------------------------
$molecule
0 1
C        -2.69770731710000   -3.10502343420000    0.97811421210000
C        -2.47169518400000   -2.47568162440000   -0.39607917500000
N        -1.92255972260000   -1.15057498630000   -0.28940269380000
C        -2.65013244890000    0.01009758640000   -0.15404607500000
C        -1.76520450290000    1.10504182860000   -0.00949612090000
C        -2.26625227480000    2.39224023600000    0.13083749060000
C        -3.63485732400000    2.57265765070000    0.12803906830000
C        -4.49977064640000    1.48940766210000   -0.01084904310000
C        -4.02508949780000    0.19956271340000   -0.15198436160000
C        -0.59003445290000   -0.84225313130000   -0.20587059960000
C        -0.43831947130000    0.55729867470000   -0.04275577040000
C         0.82449087480000    1.11437535610000    0.05315703000000
C         1.94573217470000    0.28904566550000   -0.00987621220000
C         3.25266815400000    0.91415942070000    0.09422999840000
C         4.45225734360000    0.35285317490000    0.05908849890000
F         4.75873933450000   -0.93439333640000   -0.08055316170000
F         5.58542187990000    1.05169784940000    0.16649750210000
C         1.77438891730000   -1.09693713730000   -0.16774744630000
C         0.52495546650000   -1.66962818480000   -0.26477266650000
H        -3.11275319230000   -4.10347847770000    0.87014924620000
H        -3.38775262910000   -2.49896410590000    1.56056807760000
H        -1.75727689810000   -3.17252910970000    1.52010116180000
H        -3.41745763950000   -2.41539016390000   -0.94135584960000
H        -1.78229623160000   -3.09025243410000   -0.98130582690000
H        -1.59606009450000    3.23141294220000    0.24046262230000
H        -4.04609911620000    3.56510988970000    0.23644412160000
H        -5.56601155870000    1.66179597370000   -0.00604555490000
H        -4.71055446420000   -0.62834378560000   -0.25410284810000
H         0.93945173520000    2.18089936830000    0.17671974560000
H         3.26035377190000    1.98802040910000    0.21669160950000
H         2.63893114360000   -1.73789864130000   -0.21293169510000
H         0.42814665790000   -2.73840970900000   -0.38096982270000
$end

$rem
BASIS = 6-31G*
GUI = 2
METHOD = B3LYP
PRINT_ORBITALS false
MOLDEN_FORMAT false
--------------------------------------------------------------
 ----------------------------------------------------------------
             Standard Nuclear Orientation (Angstroms)
    I     Atom           X                Y                Z
 ----------------------------------------------------------------
    1      C      -2.6034030025     3.0605088181    -0.9509352058
    2      C      -2.3695195125     2.4265878832     0.4198320336
    3      N      -1.8105478126     1.1062133428     0.3058191371
    4      C      -2.5295608888    -0.0593391008     0.1667076539
    5      C      -1.6366454071    -1.1468248760     0.0151435300
    6      C      -2.1281881257    -2.4371474988    -0.1300302183
    7      C      -3.4953695459    -2.6280090496    -0.1250414220
    8      C      -4.3681946729    -1.5520383397     0.0207626579
    9      C      -3.9030361047    -0.2592740718     0.1668085978
   10      C      -0.4759036600     0.8084516030     0.2179186038
   11      C      -0.3138995772    -0.5891364059     0.0480022262
   12      C       0.9528987640    -1.1361178072    -0.0532744921
   13      C       2.0679598723    -0.3025593731     0.0110947728
   14      C       3.3793822848    -0.9172008706    -0.0987872077
   15      C       4.5747372036    -0.3469294035    -0.0637027096
   16      F       4.8717183557     0.9419605459     0.0812092592
   17      F       5.7129478286    -1.0366090476    -0.1768442184
   18      C       1.8864197131     1.0813346112     0.1757482845
   19      C       0.6328814117     1.6440266625     0.2781800149
   20      H      -3.0257984217     4.0552615023    -0.8374398607
   21      H      -3.2901178983     2.4518926306    -1.5346576874
   22      H      -1.6647331169     3.1376802682    -1.4946811538
   23      H      -3.3135688303     2.3565745455     0.9669127884
   24      H      -1.6835095612     3.0436975163     1.0063680318
   25      H      -1.4518713891    -3.2706705106    -0.2450133447
   26      H      -3.8992824529    -3.6230592731    -0.2371232234
   27      H      -5.4330997105    -1.7325299562     0.0175186059
   28      H      -4.5945561855     0.5629012605     0.2742668563
   29      H       1.0757020796    -2.2011536953    -0.1820188728
   30      H       3.3949720959    -1.9903967070    -0.2262273577
   31      H       2.7461540614     1.7286565123     0.2219839171
   32      H       0.5281958457     2.7114923365     0.3995292552
 ----------------------------------------------------------------
 Molecular Point Group                 C1    NOp =  1
 Largest Abelian Subgroup              C1    NOp =  1
 Nuclear Repulsion Energy =        1330.49178270 hartrees
 There are       67 alpha and       67 beta electrons
 Requested basis set is 6-31G(d)
 There are 102 shells and 311 basis functions

 Total QAlloc Memory Limit   4000 MB
 Mega-Array Size       188 MB
 MEM_STATIC part       192 MB
 A cutoff of  1.0D-08 yielded   2953 shell pairs
 There are     29556 function pairs
 Smallest overlap matrix eigenvalue = 2.60E-04

 Scale SEOQF with 1.000000e-02/1.000000e-01/1.000000e+00

 Standard Electronic Orientation quadrupole field applied
 Nucleus-field energy     =     0.0000000121 hartrees
 Guess from superposition of atomic densities
 Warning:  Energy on first SCF cycle will be non-variational
 SAD guess density has 134.000000 electrons

 -----------------------------------------------------------------------
  General SCF calculation program by
  Eric Jon Sundstrom, Paul Horn, Yuezhi Mao, Dmitri Zuev, Alec White,
  David Stuck, Shaama M.S., Shane Yost, Joonho Lee, David Small,
  Daniel Levine, Susi Lehtola, Hugh Burton, Evgeny Epifanovsky,
  Bang C. Huynh
 -----------------------------------------------------------------------
 Exchange:     0.2000 Hartree-Fock + 0.0800 Slater + 0.7200 B88
 Correlation:  0.1900 VWN1RPA + 0.8100 LYP
 Using SG-1 standard quadrature grid
 A restricted SCF calculation will be
 performed using DIIS
 SCF converges when DIIS error is below 1.0e-05
 ---------------------------------------
  Cycle       Energy         DIIS error
 ---------------------------------------
    1    -876.8181946343      4.69e-02  
    2    -871.6718598039      4.78e-03  
    3    -871.4760975125      6.25e-03  
    4    -871.9386842210      1.42e-03  
    5    -871.9619320582      4.56e-04  
    6    -871.9641213871      2.14e-04  
    7    -871.9646954404      5.47e-05  
    8    -871.9647270428      1.93e-05  
    9    -871.9647316590      5.95e-06  Convergence criterion met
 ---------------------------------------
 SCF time:   CPU 72.16s  wall 73.00s 
 SCF   energy in the final basis set =     -871.9647316590
 Total energy in the final basis set =     -871.9647316590
 
 --------------------------------------------------------------
 
                    Orbital Energies (a.u.)
 --------------------------------------------------------------
 
 Alpha MOs
 -- Occupied --
-24.7354 -24.7241 -14.3772 -10.3451 -10.2366 -10.2200 -10.2195 -10.1952
-10.1947 -10.1881 -10.1872 -10.1868 -10.1865 -10.1848 -10.1843 -10.1840
-10.1839 -10.1828 -10.1773  -1.2748  -1.2142  -0.9973  -0.8610  -0.8512
 -0.8105  -0.7854  -0.7643  -0.7479  -0.7200  -0.7154  -0.6628  -0.6354
 -0.6274  -0.6035  -0.5829  -0.5795  -0.5624  -0.5367  -0.5240  -0.5091
 -0.5041  -0.4836  -0.4667  -0.4618  -0.4538  -0.4507  -0.4390  -0.4318
 -0.4306  -0.4262  -0.4180  -0.4105  -0.4038  -0.3945  -0.3883  -0.3740
 -0.3679  -0.3617  -0.3589  -0.3409  -0.3333  -0.3274  -0.2857  -0.2751
 -0.2380  -0.2112  -0.1900
 -- Virtual --
 -0.0259  -0.0118   0.0211   0.0423   0.0770   0.0889   0.0952   0.1049
  0.1158   0.1314   0.1384   0.1401   0.1548   0.1614   0.1656   0.1711
  0.1727   0.1856   0.1947   0.2003   0.2075   0.2089   0.2169   0.2282
  0.2466   0.2696   0.2731   0.2920   0.3069   0.3370   0.3412   0.3618
  0.3733   0.3928   0.4065   0.4310   0.4482   0.4682   0.4841   0.4928
  0.5054   0.5160   0.5209   0.5332   0.5409   0.5450   0.5490   0.5540
  0.5653   0.5676   0.5729   0.5811   0.5867   0.5910   0.5968   0.6001
  0.6032   0.6049   0.6123   0.6169   0.6283   0.6324   0.6367   0.6527
  0.6603   0.6665   0.6710   0.6896   0.7078   0.7305   0.7668   0.7694
  0.7807   0.8011   0.8114   0.8159   0.8313   0.8331   0.8484   0.8519
  0.8552   0.8599   0.8810   0.8838   0.8919   0.8954   0.9163   0.9300
  0.9376   0.9420   0.9496   0.9547   0.9677   0.9840   0.9868   0.9993
  1.0117   1.0330   1.0473   1.0614   1.0807   1.1318   1.1349   1.1556
  1.1604   1.1679   1.1722   1.1916   1.1998   1.2164   1.2258   1.2407
  1.2630   1.2764   1.2916   1.3215   1.3345   1.3352   1.3515   1.3619
  1.3719   1.4005   1.4124   1.4268   1.4464   1.4510   1.4580   1.4737
  1.4811   1.4890   1.5001   1.5025   1.5048   1.5157   1.5570   1.6015
  1.6234   1.6404   1.6611   1.6885   1.7312   1.7476   1.7669   1.7841
  1.7876   1.7913   1.8034   1.8228   1.8389   1.8448   1.8488   1.8542
  1.8771   1.8906   1.8988   1.9018   1.9253   1.9461   1.9579   1.9729
  1.9792   1.9865   1.9904   2.0002   2.0102   2.0288   2.0434   2.0502
  2.0586   2.0825   2.0939   2.1262   2.1352   2.1491   2.1561   2.1834
  2.2033   2.2065   2.2323   2.2397   2.2432   2.2526   2.2738   2.2834
  2.2986   2.3157   2.3250   2.3382   2.3500   2.3687   2.4088   2.4326
  2.4408   2.4891   2.5188   2.5297   2.5338   2.5571   2.5885   2.6126
  2.6156   2.6452   2.6580   2.6724   2.6911   2.7095   2.7306   2.7389
  2.7714   2.7829   2.7941   2.8475   2.8968   2.9013   2.9228   2.9290
  3.0024   3.0579   3.0780   3.1616   3.2326   3.3093   3.3743   3.4238
  3.5646   4.0756   4.0880   4.1059   4.1265   4.1363   4.1464   4.1817
  4.1949   4.2805   4.2979   4.3822   4.3919   4.4553   4.5369   4.5557
  4.7480   4.7944   4.8929   5.3021
 --------------------------------------------------------------
 
          Ground-State Mulliken Net Atomic Charges

     Atom                 Charge (a.u.)
  ----------------------------------------
      1 C                    -0.444640
      2 C                    -0.167135
      3 N                    -0.618069
      4 C                     0.320992
      5 C                     0.062669
      6 C                    -0.192630
      7 C                    -0.148187
      8 C                    -0.136867
      9 C                    -0.183885
     10 C                     0.332691
     11 C                     0.066239
     12 C                    -0.275249
     13 C                     0.183655
     14 C                    -0.289833
     15 C                     0.528758
     16 F                    -0.239966
     17 F                    -0.254974
     18 C                    -0.210288
     19 C                    -0.182153
     20 H                     0.150433
     21 H                     0.164851
     22 H                     0.164812
     23 H                     0.161761
     24 H                     0.161844
     25 H                     0.128021
     26 H                     0.121672
     27 H                     0.124374
     28 H                     0.125335
     29 H                     0.127633
     30 H                     0.154758
     31 H                     0.135543
     32 H                     0.127834
  ----------------------------------------
  Sum of atomic charges =     0.000000

 -----------------------------------------------------------------
                    Cartesian Multipole Moments
 -----------------------------------------------------------------
    Charge (ESU x 10^10)
                 0.0000
    Dipole Moment (Debye)
         X      -2.4560      Y       1.4473      Z       0.0536
       Tot       2.8512
    Quadrupole Moments (Debye-Ang)
        XX    -108.9912     XY      -5.2434     YY     -95.3124
        XZ      -0.5323     YZ       1.9137     ZZ    -111.4823
    Octopole Moments (Debye-Ang^2)
       XXX     -19.4829    XXY      12.4881    XYY      11.4560
       YYY       5.9852    XXZ       2.6304    XYZ      -2.8974
       YYZ      -0.2201    XZZ      32.8866    YZZ       6.8050
       ZZZ      -1.2748
    Hexadecapole Moments (Debye-Ang^3)
      XXXX   -6037.4135   XXXY       5.2835   XXYY   -1217.8549
      XYYY     -27.9181   YYYY   -1672.0373   XXXZ      -6.6737
      XXYZ      11.6020   XYYZ      -1.6925   YYYZ      24.1100
      XXZZ   -1042.4533   XYZZ     -21.0725   YYZZ    -345.3359
      XZZZ      -5.7186   YZZZ       1.5285   ZZZZ    -191.4535
 -----------------------------------------------------------------
Archival summary:
1\1\nia1977.scinet.local\SP\ProcedureUnspecified\6-31G*\211613\rhickman\MonFeb718:28:002022MonFeb718:28:002022\0\\#,ProcedureUnspecified,6-31G*,\\0,1\N\C,1,1.37028\C,1,1.37653,2,108.559\C,3,1.38795,1,129.706,2,-178.983,0\H,4,1.07968,3,121.609,1,0.843088,0\C,4,1.38164,3,117.9,1,-179.32,0\H,6,1.0801,4,119.249,3,-179.983,0\C,2,1.38968,1,130.067,3,178.987,0\H,8,1.07943,2,121.473,1,-0.867398,0\C,8,1.37785,2,118.497,1,179.298,0\H,10,1.07718,8,118.524,2,179.974,0\C,6,1.39312,4,121.52,3,-0.109505,0\H,12,1.07974,6,119.226,4,-179.967,0\C,12,1.38045,6,120.937,4,-0.0749152,0\H,14,1.07953,12,120.937,6,-179.875,0\C,14,1.38839,12,118.604,6,0.0702101,0\C,10,1.40543,8,121.894,2,0.116802,0\C,17,1.39367,10,119.406,8,0.0947221,0\H,18,1.07979,17,120.294,10,179.847,0\C,18,1.38355,17,119.52,10,-0.105209,0\C,1,1.43835,2,125.667,3,-175.582,0\H,21,1.09336,1,108.447,2,-151.096,0\H,21,1.09337,1,108.47,2,-34.0071,0\C,17,1.45248,10,122.832,8,-179.988,0\H,24,1.08085,17,116.239,10,-179.795,0\C,24,1.32488,17,129.085,10,0.285644,0\F,26,1.33058,24,128.404,17,-0.0568903,0\F,26,1.33566,24,122.981,17,179.954,0\C,21,1.52825,1,111.664,2,87.4503,0\H,29,1.08666,21,110.214,1,179.969,0\H,29,1.08753,21,110.231,1,-59.8817,0\H,29,1.08753,21,110.239,1,59.8031,0\\\@

 Total job time:  72.64s(wall), 72.44s(cpu) 
 Mon Feb  7 18:28:00 2022

        *************************************************************
        *                                                           *
        *  Thank you very much for using Q-Chem.  Have a nice day.  *
        *                                                           *
        *************************************************************


