
Running Job 1 of 1 fragments/C045/conf-0/spe_input.inp
qchem fragments/C045/conf-0/spe_input.inp_74254.0 /gpfs/fs0/scratch/a/aspuru/rhickman/descriptor_computation/qchem74254/ 0
/scinet/niagara/software/commercial/qc52/exe/qcprog.exe_s fragments/C045/conf-0/spe_input.inp_74254.0 /gpfs/fs0/scratch/a/aspuru/rhickman/descriptor_computation/qchem74254/
                  Welcome to Q-Chem
     A Quantum Leap Into The Future Of Chemistry


 Q-Chem 5.2, Q-Chem, Inc., Pleasanton, CA (2019)

 License issued to: SRG Alan Aspuru-Guzik, University of Toronto

 Yihan Shao,  Zhengting Gan,  E. Epifanovsky,  A. T. B. Gilbert,  M. Wormit,  
 J. Kussmann,  A. W. Lange,  A. Behn,  Jia Deng,  Xintian Feng,  D. Ghosh,  
 M. Goldey,  P. R. Horn,  L. D. Jacobson,  I. Kaliman,  T. Kus,  A. Landau,  
 Jie Liu,  E. I. Proynov,  R. M. Richard,  R. P. Steele,  E. J. Sundstrom,  
 H. L. Woodcock III,  P. M. Zimmerman,  D. Zuev,  B. Albrecht,  E. Alguire,  
 S. A. Baeppler,  D. Barton,  Z. Benda,  Y. A. Bernard,  E. J. Berquist,  
 K. B. Bravaya,  H. Burton,  D. Casanova,  Chun-Min Chang,  Yunqing Chen,  
 A. Chien,  K. D. Closser,  M. P. Coons,  S. Coriani,  S. Dasgupta,  
 A. L. Dempwolff,  M. Diedenhofen,  Hainam Do,  R. G. Edgar,  Po-Tung Fang,  
 S. Faraji,  S. Fatehi,  Qingguo Feng,  K. D. Fenk,  J. Fosso-Tande,  
 J. Gayvert,  Qinghui Ge,  A. Ghysels,  G. Gidofalvi,  J. Gomes,  
 J. Gonthier,  A. Gunina,  D. Hait,  M. W. D. Hanson-Heine,  
 P. H. P. Harbach,  A. W. Hauser,  M. F. Herbst,  J. E. Herr,  
 E. G. Hohenstein,  Z. C. Holden,  Kerwin Hui,  B. C. Huynh,  T.-C. Jagau,  
 Hyunjun Ji,  B. Kaduk,  K. Khistyaev,  Jaehoon Kim,  P. Klunzinger,  K. Koh,  
 D. Kosenkov,  L. Koulias,  T. Kowalczyk,  C. M. Krauter,  A. Kunitsa,  
 Ka Un Lao,  A. Laurent,  K. V. Lawler,  Joonho Lee,  D. Lefrancois,  
 S. Lehtola,  D. S. Levine,  Yi-Pei Li,  You-Sheng Lin,  Fenglai Liu,  
 E. Livshits,  A. Luenser,  P. Manohar,  E. Mansoor,  S. F. Manzer,  
 Shan-Ping Mao,  Yuezhi Mao,  N. Mardirossian,  A. V. Marenich,  
 T. Markovich,  L. A. Martinez-Martinez,  S. A. Maurer,  N. J. Mayhall,  
 S. C. McKenzie,  J.-M. Mewes,  P. Morgante,  A. F. Morrison,  
 J. W. Mullinax,  K. Nanda,  T. S. Nguyen-Beck,  R. Olivares-Amaya,  
 J. A. Parkhill,  Zheng Pei,  T. M. Perrine,  F. Plasser,  P. Pokhilko,  
 S. Prager,  A. Prociuk,  E. Ramos,  D. R. Rehn,  F. Rob,  M. Scheurer,  
 M. Schneider,  N. Sergueev,  S. M. Sharada,  S. Sharma,  D. W. Small,  
 T. Stauch,  T. Stein,  Yu-Chuan Su,  A. J. W. Thom,  A. Tkatchenko,  
 T. Tsuchimochi,  N. M. Tubman,  L. Vogt,  M. L. Vidal,  O. Vydrov,  
 M. A. Watson,  J. Wenzel,  M. de Wergifosse,  T. A. Wesolowski,  A. White,  
 J. Witte,  A. Yamada,  Jun Yang,  K. Yao,  S. Yeganeh,  S. R. Yost,  
 Zhi-Qiang You,  A. Zech,  Igor Ying Zhang,  Xing Zhang,  Yan Zhao,  
 Ying Zhu,  B. R. Brooks,  G. K. L. Chan,  C. J. Cramer,  M. S. Gordon,  
 W. J. Hehre,  A. Klamt,  M. W. Schmidt,  C. D. Sherrill,  D. G. Truhlar,  
 A. Aspuru-Guzik,  R. Baer,  A. T. Bell,  N. A. Besley,  Jeng-Da Chai,  
 A. E. DePrince, III,  R. A. DiStasio Jr.,  A. Dreuw,  B. D. Dunietz,  
 T. R. Furlani,  Chao-Ping Hsu,  Yousung Jung,  Jing Kong,  D. S. Lambrecht,  
 WanZhen Liang,  C. Ochsenfeld,  V. A. Rassolov,  L. V. Slipchenko,  
 J. E. Subotnik,  T. Van Voorhis,  J. M. Herbert,  A. I. Krylov,  
 P. M. W. Gill,  M. Head-Gordon

 Contributors to earlier versions of Q-Chem not listed above: 
 R. D. Adamson,  B. Austin,  J. Baker,  G. J. O. Beran,  K. Brandhorst,  
 S. T. Brown,  E. F. C. Byrd,  A. K. Chakraborty,  C.-L. Cheng,  
 Siu Hung Chien,  D. M. Chipman,  D. L. Crittenden,  H. Dachsel,  
 R. J. Doerksen,  A. D. Dutoi,  L. Fusti-Molnar,  W. A. Goddard III,  
 A. Golubeva-Zadorozhnaya,  S. R. Gwaltney,  G. Hawkins,  A. Heyden,  
 S. Hirata,  G. Kedziora,  F. J. Keil,  C. Kelley,  Jihan Kim,  R. A. King,  
 R. Z. Khaliullin,  P. P. Korambath,  W. Kurlancheek,  A. M. Lee,  M. S. Lee,  
 S. V. Levchenko,  Ching Yeh Lin,  D. Liotard,  R. C. Lochan,  I. Lotan,  
 P. E. Maslen,  N. Nair,  D. P. O'Neill,  D. Neuhauser,  E. Neuscamman,  
 C. M. Oana,  R. Olson,  B. Peters,  R. Peverati,  P. A. Pieniazek,  
 Y. M. Rhee,  J. Ritchie,  M. A. Rohrdanz,  E. Rosta,  N. J. Russ,  
 H. F. Schaefer III,  N. E. Schultz,  N. Shenvi,  A. C. Simmonett,  A. Sodt,  
 D. Stuck,  K. S. Thanthiriwatte,  V. Vanovschi,  Tao Wang,  A. Warshel,  
 C. F. Williams,  Q. Wu,  X. Xu,  W. Zhang

 Please cite Q-Chem as follows:
 Y. Shao et al., Mol. Phys. 113, 184-215 (2015)
 DOI: 10.1080/00268976.2014.952696

 Q-Chem 5.2.1 for Intel X86 EM64T Linux

 Parts of Q-Chem use Armadillo 8.300.2 (Tropical Shenanigans).
 http://arma.sourceforge.net/

 Q-Chem begins on Mon Feb  7 14:09:30 2022  

Host: 
0

     Scratch files written to /gpfs/fs0/scratch/a/aspuru/rhickman/descriptor_computation/qchem74254//
 Jul1719 |scratch|qcdevops|jenkins|workspace|build_RNUM -1
Processing $rem in /scinet/niagara/software/commercial/qc52/config/preferences:
	 MEM_TOTAL  4000 
NAlpha2: 86
NElect   86
Mult     1

Checking the input file for inconsistencies... 	...done.

--------------------------------------------------------------
User input:
--------------------------------------------------------------
$molecule
0 1
C        -3.81635622480000    0.63939086100000    0.09852482120000
C        -2.69398102280000    1.34341942520000    0.03110955960000
C        -1.36627464200000    0.73781496570000   -0.01020523110000
C        -0.22637737900000    1.54162940490000   -0.07520393030000
C         1.02319220250000    0.93761406340000   -0.11345383670000
C         2.27896932390000    1.77069798560000   -0.18944124680000
O         3.43697679950000    1.10641702920000    0.25045484880000
C         1.08722377270000   -0.44671670900000   -0.08733846290000
C        -0.10041513660000   -1.18047531590000   -0.01803956540000
C        -0.14504127360000   -2.63949574150000    0.01803833200000
C         0.89348235290000   -3.46314795340000   -0.03828656860000
N        -1.28879996910000   -0.58866184970000    0.02197176190000
H        -4.78512809040000    1.10782045920000    0.12694234160000
H        -3.78068477580000   -0.43584394070000    0.12628101990000
H        -2.71362661400000    2.42517768290000    0.00209921920000
H        -0.31612708860000    2.61793231830000   -0.09461302370000
H         2.13036282010000    2.70799641720000    0.36856743690000
H         2.47315330530000    2.03118637230000   -1.23576742400000
H         3.30782263700000    0.83034972730000    1.16496721440000
H         2.04626033330000   -0.93786630730000   -0.12746782380000
H        -1.14999883190000   -3.03176707290000    0.09486023830000
H         1.91044529870000   -3.11839278290000   -0.12034386160000
H         0.76136424410000   -4.53116828710000   -0.00698220790000
$end

$rem
BASIS = 6-31G*
GUI = 2
METHOD = B3LYP
PRINT_ORBITALS false
MOLDEN_FORMAT false
--------------------------------------------------------------
 ----------------------------------------------------------------
             Standard Nuclear Orientation (Angstroms)
    I     Atom           X                Y                Z
 ----------------------------------------------------------------
    1      C       3.8293983103     0.5552467795    -0.0969715009
    2      C       2.7231215797     1.2843792809    -0.0303027578
    3      C       1.3821384001     0.7088004962     0.0114235116
    4      C       0.2605865500     1.5380851981     0.0755841262
    5      C      -1.0022436053     0.9623365323     0.1142519409
    6      C      -2.2389892103     1.8234971932     0.1893632655
    7      O      -3.4115962227     1.1850093469    -0.2500512793
    8      C      -1.0973646837    -0.4202288044     0.0893760015
    9      C       0.0734913514    -1.1805520863     0.0208569434
   10      C       0.0853229656    -2.6402388482    -0.0139033684
   11      C      -0.9714515150    -3.4402949999     0.0430583267
   12      N       1.2748781567    -0.6156288999    -0.0195674637
   13      H       4.8084540717     1.0017627425    -0.1257131509
   14      H       3.7695761258    -0.5189395302    -0.1237635910
   15      H       2.7670684432     2.3654486491    -0.0022640092
   16      H       0.3744980118     2.6121166133     0.0940335920
   17      H      -2.0693130528     2.7567158612    -0.3694737889
   18      H      -2.4273546794     2.0892270521     1.2354350506
   19      H      -3.2886048186     0.9052847124    -1.1643018265
   20      H      -2.0671990881    -0.8896672216     0.1298509138
   21      H       1.0812180624    -3.0550629277    -0.0902711355
   22      H      -1.9804171403    -3.0727005650     0.1247030343
   23      H      -0.8633641073    -4.5110423101     0.0127284586
 ----------------------------------------------------------------
 Molecular Point Group                 C1    NOp =  1
 Largest Abelian Subgroup              C1    NOp =  1
 Nuclear Repulsion Energy =         642.71401540 hartrees
 There are       43 alpha and       43 beta electrons
 Requested basis set is 6-31G(d)
 There are 70 shells and 202 basis functions

 Total QAlloc Memory Limit   4000 MB
 Mega-Array Size       188 MB
 MEM_STATIC part       192 MB
 A cutoff of  1.0D-08 yielded   1705 shell pairs
 There are     15464 function pairs
 Smallest overlap matrix eigenvalue = 6.12E-04

 Scale SEOQF with 1.000000e-01/1.000000e-01/1.000000e+00

 Standard Electronic Orientation quadrupole field applied
 Nucleus-field energy     =     0.0000000274 hartrees
 Guess from superposition of atomic densities
 Warning:  Energy on first SCF cycle will be non-variational
 SAD guess density has 86.000000 electrons

 -----------------------------------------------------------------------
  General SCF calculation program by
  Eric Jon Sundstrom, Paul Horn, Yuezhi Mao, Dmitri Zuev, Alec White,
  David Stuck, Shaama M.S., Shane Yost, Joonho Lee, David Small,
  Daniel Levine, Susi Lehtola, Hugh Burton, Evgeny Epifanovsky,
  Bang C. Huynh
 -----------------------------------------------------------------------
 Exchange:     0.2000 Hartree-Fock + 0.0800 Slater + 0.7200 B88
 Correlation:  0.1900 VWN1RPA + 0.8100 LYP
 Using SG-1 standard quadrature grid
 A restricted SCF calculation will be
 performed using DIIS
 SCF converges when DIIS error is below 1.0e-05
 ---------------------------------------
  Cycle       Energy         DIIS error
 ---------------------------------------
    1    -520.3082950826      5.72e-02  
    2    -517.4232715564      6.04e-03  
    3    -517.4065713613      6.67e-03  
    4    -517.5997874076      1.44e-03  
    5    -517.6084724782      4.41e-04  
    6    -517.6092861128      2.06e-04  
    7    -517.6094968656      3.69e-05  
    8    -517.6095019350      1.85e-05  
    9    -517.6095037236      2.31e-06  Convergence criterion met
 ---------------------------------------
 SCF time:   CPU 27.36s  wall 27.00s 
 SCF   energy in the final basis set =     -517.6095037236
 Total energy in the final basis set =     -517.6095037236
 
 --------------------------------------------------------------
 
                    Orbital Energies (a.u.)
 --------------------------------------------------------------
 
 Alpha MOs
 -- Occupied --
-19.1563 -14.3186 -10.2451 -10.2260 -10.2245 -10.2092 -10.1935 -10.1905
-10.1874 -10.1852 -10.1846 -10.1775  -1.0352  -0.9491  -0.8181  -0.8133
 -0.7691  -0.7270  -0.7031  -0.6478  -0.6263  -0.5727  -0.5516  -0.5295
 -0.5018  -0.4847  -0.4660  -0.4617  -0.4528  -0.4296  -0.4168  -0.4103
 -0.4069  -0.3814  -0.3634  -0.3504  -0.3404  -0.3214  -0.2970  -0.2775
 -0.2548  -0.2523  -0.2241
 -- Virtual --
 -0.0415  -0.0370   0.0316   0.0751   0.0843   0.1060   0.1169   0.1249
  0.1338   0.1460   0.1575   0.1700   0.1888   0.1973   0.2027   0.2153
  0.2202   0.2580   0.2846   0.2991   0.3303   0.3356   0.3477   0.3721
  0.3823   0.4236   0.4598   0.4802   0.5067   0.5115   0.5281   0.5387
  0.5467   0.5548   0.5635   0.5784   0.5959   0.6033   0.6096   0.6270
  0.6340   0.6502   0.6545   0.6635   0.6828   0.6911   0.7065   0.7115
  0.7252   0.7619   0.7711   0.7971   0.8167   0.8318   0.8487   0.8558
  0.8659   0.8863   0.8897   0.8951   0.8977   0.9073   0.9333   0.9499
  0.9646   0.9859   1.0034   1.0195   1.0328   1.0339   1.0732   1.0984
  1.1167   1.1454   1.1593   1.1877   1.2145   1.2412   1.2452   1.2827
  1.3040   1.3350   1.3388   1.3457   1.3921   1.4254   1.4587   1.4732
  1.4877   1.5047   1.5283   1.5500   1.6474   1.6533   1.6700   1.6715
  1.6836   1.7114   1.7607   1.7935   1.8085   1.8389   1.8438   1.8621
  1.9077   1.9526   1.9755   1.9826   2.0011   2.0159   2.0237   2.0754
  2.0841   2.1085   2.1464   2.1674   2.1729   2.2059   2.2222   2.2672
  2.2743   2.2837   2.3113   2.3233   2.3427   2.4013   2.4135   2.4229
  2.4534   2.4805   2.4930   2.5611   2.6180   2.6289   2.6602   2.7242
  2.7312   2.7471   2.8074   2.8183   2.8477   2.9271   2.9411   3.0023
  3.1119   3.2848   3.4842   3.7864   4.0625   4.1026   4.1212   4.1517
  4.1796   4.2397   4.2628   4.3786   4.4642   4.5004   4.7175
 --------------------------------------------------------------
 
          Ground-State Mulliken Net Atomic Charges

     Atom                 Charge (a.u.)
  ----------------------------------------
      1 C                    -0.331136
      2 C                    -0.109543
      3 C                     0.329220
      4 C                    -0.240958
      5 C                     0.130919
      6 C                    -0.085965
      7 O                    -0.605295
      8 C                    -0.234658
      9 C                     0.316648
     10 C                    -0.093601
     11 C                    -0.346978
     12 N                    -0.576487
     13 H                     0.140843
     14 H                     0.169253
     15 H                     0.123347
     16 H                     0.127355
     17 H                     0.136534
     18 H                     0.173629
     19 H                     0.393847
     20 H                     0.144299
     21 H                     0.143136
     22 H                     0.146286
     23 H                     0.149305
  ----------------------------------------
  Sum of atomic charges =     0.000000

 -----------------------------------------------------------------
                    Cartesian Multipole Moments
 -----------------------------------------------------------------
    Charge (ESU x 10^10)
                 0.0000
    Dipole Moment (Debye)
         X      -0.3855      Y       1.0220      Z      -0.8286
       Tot       1.3710
    Quadrupole Moments (Debye-Ang)
        XX     -72.7467     XY       3.2900     YY     -62.3193
        XZ       2.9483     YZ      -0.1177     ZZ     -70.7801
    Octopole Moments (Debye-Ang^2)
       XXX      28.8809    XXY      -5.9444    XYY      -4.0492
       YYY      -0.3215    XXZ     -12.3992    XYZ       1.5973
       YYZ       0.1902    XZZ     -17.7372    YZZ       7.2402
       ZZZ      -3.9874
    Hexadecapole Moments (Debye-Ang^3)
      XXXX   -1852.2235   XXXY      55.0121   XXYY    -507.8990
      XYYY      -6.4534   YYYY   -1198.4102   XXXZ      39.0593
      XXYZ      -4.9624   XYYZ      -1.7307   YYYZ       1.7269
      XXZZ    -304.7238   XYZZ     -23.6856   YYZZ    -248.6093
      XZZZ      14.7369   YZZZ      -1.9388   ZZZZ     -83.2009
 -----------------------------------------------------------------
Archival summary:
1\1\nia1977.scinet.local\SP\ProcedureUnspecified\6-31G*\111011\rhickman\MonFeb714:09:582022MonFeb714:09:582022\0\\#,ProcedureUnspecified,6-31G*,\\0,1\N\C,1,1.3282\C,1,1.32913,2,119.743\C,3,1.39632,1,121.874,2,-0.502912,0\H,4,1.08021,3,120.437,1,-179.652,0\C,4,1.38842,3,119.049,1,0.299401,0\C,6,1.38606,4,118.395,3,0.093811,0\H,7,1.07823,6,119.692,4,179.307,0\C,3,1.45989,1,117.796,2,179.783,0\H,9,1.08233,3,115.491,1,-179.948,0\C,9,1.32662,3,123.417,1,-0.00436416,0\H,11,1.07618,9,120.231,3,0.0351749,0\H,11,1.07645,9,122.128,3,-179.936,0\C,2,1.46015,1,114.654,3,-179.766,0\H,14,1.08154,2,113.115,1,-1.27418,0\C,14,1.32669,2,126.54,1,178.469,0\H,16,1.07662,14,121.237,2,-179.859,0\H,16,1.07694,14,122.935,2,-0.0614205,0\C,6,1.5089,4,120.678,3,179.755,0\H,19,1.09561,6,109.079,4,-84.041,0\H,19,1.1009,6,109.402,4,33.6438,0\O,19,1.40562,6,114.139,4,158.408,0\H,22,0.963964,19,108.776,6,-58.6869,0\\\@

 Total job time:  27.62s(wall), 27.52s(cpu) 
 Mon Feb  7 14:09:58 2022

        *************************************************************
        *                                                           *
        *  Thank you very much for using Q-Chem.  Have a nice day.  *
        *                                                           *
        *************************************************************


