21
 energy: -38.753806376009 gnorm: 0.000089017172 xtb: 6.4.1 (23d549d)
C         4.12225914560000    0.69296927640000   -0.00157533650000
C         3.07258723380000   -0.12312411270000    0.00051506190000
C         1.67782692840000    0.27515402800000    0.00065946150000
C         1.22294654140000    1.57697550680000    0.00079624320000
C        -0.14200133390000    1.87664356500000    0.00046641440000
F        -0.45952289960000    3.19110444960000    0.00029356410000
C        -1.16879395340000    0.94707845170000   -0.00010170600000
C        -2.55597687360000    1.36673320360000   -0.00117700500000
C        -3.60797391530000    0.55357306600000    0.00012285950000
C        -0.72968684980000   -0.40324236760000    0.00002506170000
N        -1.48601457140000   -1.50069541230000   -0.00028159780000
S        -0.53483363380000   -2.79600920000000   -0.00010919900000
N         0.88259406750000   -2.04473943060000    0.00026984400000
C         0.67468166730000   -0.72887803240000    0.00041850960000
H         5.12659531430000    0.30682284960000   -0.00129239170000
H         4.02824542420000    1.76551667360000   -0.00349839270000
H         3.21905401290000   -1.19472599820000    0.00175332620000
H         1.91224221650000    2.40594545670000    0.00106512390000
H        -2.69997375900000    2.43950478740000   -0.00337013780000
H        -3.49264647530000   -0.51570664820000    0.00229263320000
H        -4.61078185260000    0.94509318770000   -0.00062921140000
