14
 energy: -25.292957158026 gnorm: 0.000049843505 xtb: 6.4.1 (23d549d)
C        -3.63212050800000    0.91178403730000    0.00381372920000
C        -2.82076979700000   -0.14417900920000   -0.00134551320000
C        -1.38578514460000   -0.03992535730000    0.00025500710000
C        -0.57683686610000   -1.11358031410000   -0.00577296530000
C         0.86447668730000   -1.11032277870000   -0.00561308180000
C         1.67574589150000   -0.05793731110000   -0.00003665280000
F         1.33760189590000    1.22618336090000    0.00687336650000
F         3.00397917000000   -0.15724188150000   -0.00076512240000
H        -4.70323568620000    0.80838517720000    0.00220302140000
H        -3.24532561270000    1.91749089350000    0.00953993290000
H        -3.23196704310000   -1.14568405840000   -0.00713103440000
H        -0.97999203580000    0.96084625350000    0.00634735050000
H        -1.02178656120000   -2.09983711970000   -0.01160262560000
H         1.36070887360000   -2.06949089320000   -0.01082350520000
