
Running Job 1 of 1 fragments/A015/conf-3/spe_input.inp
qchem fragments/A015/conf-3/spe_input.inp_166333.0 /gpfs/fs0/scratch/a/aspuru/rhickman/descriptor_computation/qchem166333/ 0
/scinet/niagara/software/commercial/qc52/exe/qcprog.exe_s fragments/A015/conf-3/spe_input.inp_166333.0 /gpfs/fs0/scratch/a/aspuru/rhickman/descriptor_computation/qchem166333/
                  Welcome to Q-Chem
     A Quantum Leap Into The Future Of Chemistry


 Q-Chem 5.2, Q-Chem, Inc., Pleasanton, CA (2019)

 License issued to: SRG Alan Aspuru-Guzik, University of Toronto

 Yihan Shao,  Zhengting Gan,  E. Epifanovsky,  A. T. B. Gilbert,  M. Wormit,  
 J. Kussmann,  A. W. Lange,  A. Behn,  Jia Deng,  Xintian Feng,  D. Ghosh,  
 M. Goldey,  P. R. Horn,  L. D. Jacobson,  I. Kaliman,  T. Kus,  A. Landau,  
 Jie Liu,  E. I. Proynov,  R. M. Richard,  R. P. Steele,  E. J. Sundstrom,  
 H. L. Woodcock III,  P. M. Zimmerman,  D. Zuev,  B. Albrecht,  E. Alguire,  
 S. A. Baeppler,  D. Barton,  Z. Benda,  Y. A. Bernard,  E. J. Berquist,  
 K. B. Bravaya,  H. Burton,  D. Casanova,  Chun-Min Chang,  Yunqing Chen,  
 A. Chien,  K. D. Closser,  M. P. Coons,  S. Coriani,  S. Dasgupta,  
 A. L. Dempwolff,  M. Diedenhofen,  Hainam Do,  R. G. Edgar,  Po-Tung Fang,  
 S. Faraji,  S. Fatehi,  Qingguo Feng,  K. D. Fenk,  J. Fosso-Tande,  
 J. Gayvert,  Qinghui Ge,  A. Ghysels,  G. Gidofalvi,  J. Gomes,  
 J. Gonthier,  A. Gunina,  D. Hait,  M. W. D. Hanson-Heine,  
 P. H. P. Harbach,  A. W. Hauser,  M. F. Herbst,  J. E. Herr,  
 E. G. Hohenstein,  Z. C. Holden,  Kerwin Hui,  B. C. Huynh,  T.-C. Jagau,  
 Hyunjun Ji,  B. Kaduk,  K. Khistyaev,  Jaehoon Kim,  P. Klunzinger,  K. Koh,  
 D. Kosenkov,  L. Koulias,  T. Kowalczyk,  C. M. Krauter,  A. Kunitsa,  
 Ka Un Lao,  A. Laurent,  K. V. Lawler,  Joonho Lee,  D. Lefrancois,  
 S. Lehtola,  D. S. Levine,  Yi-Pei Li,  You-Sheng Lin,  Fenglai Liu,  
 E. Livshits,  A. Luenser,  P. Manohar,  E. Mansoor,  S. F. Manzer,  
 Shan-Ping Mao,  Yuezhi Mao,  N. Mardirossian,  A. V. Marenich,  
 T. Markovich,  L. A. Martinez-Martinez,  S. A. Maurer,  N. J. Mayhall,  
 S. C. McKenzie,  J.-M. Mewes,  P. Morgante,  A. F. Morrison,  
 J. W. Mullinax,  K. Nanda,  T. S. Nguyen-Beck,  R. Olivares-Amaya,  
 J. A. Parkhill,  Zheng Pei,  T. M. Perrine,  F. Plasser,  P. Pokhilko,  
 S. Prager,  A. Prociuk,  E. Ramos,  D. R. Rehn,  F. Rob,  M. Scheurer,  
 M. Schneider,  N. Sergueev,  S. M. Sharada,  S. Sharma,  D. W. Small,  
 T. Stauch,  T. Stein,  Yu-Chuan Su,  A. J. W. Thom,  A. Tkatchenko,  
 T. Tsuchimochi,  N. M. Tubman,  L. Vogt,  M. L. Vidal,  O. Vydrov,  
 M. A. Watson,  J. Wenzel,  M. de Wergifosse,  T. A. Wesolowski,  A. White,  
 J. Witte,  A. Yamada,  Jun Yang,  K. Yao,  S. Yeganeh,  S. R. Yost,  
 Zhi-Qiang You,  A. Zech,  Igor Ying Zhang,  Xing Zhang,  Yan Zhao,  
 Ying Zhu,  B. R. Brooks,  G. K. L. Chan,  C. J. Cramer,  M. S. Gordon,  
 W. J. Hehre,  A. Klamt,  M. W. Schmidt,  C. D. Sherrill,  D. G. Truhlar,  
 A. Aspuru-Guzik,  R. Baer,  A. T. Bell,  N. A. Besley,  Jeng-Da Chai,  
 A. E. DePrince, III,  R. A. DiStasio Jr.,  A. Dreuw,  B. D. Dunietz,  
 T. R. Furlani,  Chao-Ping Hsu,  Yousung Jung,  Jing Kong,  D. S. Lambrecht,  
 WanZhen Liang,  C. Ochsenfeld,  V. A. Rassolov,  L. V. Slipchenko,  
 J. E. Subotnik,  T. Van Voorhis,  J. M. Herbert,  A. I. Krylov,  
 P. M. W. Gill,  M. Head-Gordon

 Contributors to earlier versions of Q-Chem not listed above: 
 R. D. Adamson,  B. Austin,  J. Baker,  G. J. O. Beran,  K. Brandhorst,  
 S. T. Brown,  E. F. C. Byrd,  A. K. Chakraborty,  C.-L. Cheng,  
 Siu Hung Chien,  D. M. Chipman,  D. L. Crittenden,  H. Dachsel,  
 R. J. Doerksen,  A. D. Dutoi,  L. Fusti-Molnar,  W. A. Goddard III,  
 A. Golubeva-Zadorozhnaya,  S. R. Gwaltney,  G. Hawkins,  A. Heyden,  
 S. Hirata,  G. Kedziora,  F. J. Keil,  C. Kelley,  Jihan Kim,  R. A. King,  
 R. Z. Khaliullin,  P. P. Korambath,  W. Kurlancheek,  A. M. Lee,  M. S. Lee,  
 S. V. Levchenko,  Ching Yeh Lin,  D. Liotard,  R. C. Lochan,  I. Lotan,  
 P. E. Maslen,  N. Nair,  D. P. O'Neill,  D. Neuhauser,  E. Neuscamman,  
 C. M. Oana,  R. Olson,  B. Peters,  R. Peverati,  P. A. Pieniazek,  
 Y. M. Rhee,  J. Ritchie,  M. A. Rohrdanz,  E. Rosta,  N. J. Russ,  
 H. F. Schaefer III,  N. E. Schultz,  N. Shenvi,  A. C. Simmonett,  A. Sodt,  
 D. Stuck,  K. S. Thanthiriwatte,  V. Vanovschi,  Tao Wang,  A. Warshel,  
 C. F. Williams,  Q. Wu,  X. Xu,  W. Zhang

 Please cite Q-Chem as follows:
 Y. Shao et al., Mol. Phys. 113, 184-215 (2015)
 DOI: 10.1080/00268976.2014.952696

 Q-Chem 5.2.1 for Intel X86 EM64T Linux

 Parts of Q-Chem use Armadillo 8.300.2 (Tropical Shenanigans).
 http://arma.sourceforge.net/

 Q-Chem begins on Mon Feb  7 18:28:01 2022  

Host: 
0

     Scratch files written to /gpfs/fs0/scratch/a/aspuru/rhickman/descriptor_computation/qchem166333//
 Jul1719 |scratch|qcdevops|jenkins|workspace|build_RNUM -1
Processing $rem in /scinet/niagara/software/commercial/qc52/config/preferences:
	 MEM_TOTAL  4000 
NAlpha2: 122
NElect   122
Mult     1

Checking the input file for inconsistencies... 	...done.

--------------------------------------------------------------
User input:
--------------------------------------------------------------
$molecule
0 1
C         3.97534623020000    0.70886430640000    0.78296840390000
N         3.11230796440000    1.12966140690000   -0.30319371920000
C         1.73528751330000    1.01589285440000   -0.11249993830000
C         0.89150472290000    2.10830634800000   -0.13003096200000
C        -0.47940078240000    1.96190471200000    0.06873113970000
C        -1.05185961230000    0.72988945170000    0.29279377780000
C        -2.50573729410000    0.67623838410000    0.46187129770000
C        -3.33519711710000   -0.13309384410000   -0.17319746240000
F        -3.02455457640000   -1.06523791370000   -1.06820552030000
F        -4.66070047300000   -0.11198434800000   -0.01118814730000
C         1.16939366910000   -0.28523434260000    0.05995406460000
C        -0.22057804400000   -0.42345815570000    0.32420445700000
C        -0.71896137970000   -1.70758039400000    0.63085846600000
C         0.07910003540000   -2.81471771590000    0.56342291940000
C         1.41386923770000   -2.69267097310000    0.15819072300000
C         1.94701446270000   -1.45511544220000   -0.07240704330000
C         3.61100847070000    2.31283022190000   -0.96292917260000
H         3.48618682400000   -0.04838902360000    1.38903901150000
H         4.22771591110000    1.55803457980000    1.43324286970000
H         4.90462310100000    0.30114470650000    0.37893740900000
H         1.28476950450000    3.10198971540000   -0.27546477280000
H        -1.10668266810000    2.84183688750000    0.04589234610000
H        -2.96080128350000    1.41872000210000    1.10184247330000
H        -1.74857846210000   -1.81290750370000    0.93494654000000
H        -0.32196355320000   -3.78884881960000    0.80086546830000
H         2.02055880810000   -3.57823281690000    0.03889712860000
H         2.97240363070000   -1.36254853380000   -0.39293515600000
H         4.62428437850000    2.10443725840000   -1.30998400720000
H         3.65215965120000    3.19261571320000   -0.30516167330000
H         2.98882403240000    2.53888406790000   -1.82650831330000
$end

$rem
BASIS = 6-31G*
GUI = 2
METHOD = B3LYP
PRINT_ORBITALS false
MOLDEN_FORMAT false
--------------------------------------------------------------
 ----------------------------------------------------------------
             Standard Nuclear Orientation (Angstroms)
    I     Atom           X                Y                Z
 ----------------------------------------------------------------
    1      C      -3.8999664379     0.2699920468     0.7527722176
    2      N      -3.1524320924    -0.4511123915    -0.2585903273
    3      C      -1.7835282911    -0.6188513057    -0.0501226708
    4      C      -1.1996004285    -1.8633996045     0.0754629902
    5      C       0.1705034790    -1.9972496725     0.2881156610
    6      C       0.9994414057    -0.9021220704     0.3847191202
    7      C       2.4301183534    -1.1473602712     0.5802891958
    8      C       3.4153548505    -0.6169514391    -0.1227827062
    9      F       3.3145283656     0.2508759367    -1.1243516973
   10      F       4.7043828671    -0.9074914797     0.0712405725
   11      C      -0.9459670690     0.5387334033    -0.0127455455
   12      C       0.4410901309     0.4003574322     0.2663241063
   13      C       1.2093462265     1.5716476877     0.4373628807
   14      C       0.6730705828     2.8107050235     0.2267732861
   15      C      -0.6568865330     2.9364722725    -0.1928861390
   16      C      -1.4486938109     1.8266569482    -0.2944441687
   17      C      -3.8996461015    -1.5652187793    -0.7917691803
   18      H      -3.2554844877     0.9672148132     1.2805548828
   19      H      -4.3308270749    -0.4229937522     1.4888206425
   20      H      -4.7182221696     0.8209781565     0.2838333260
   21      H      -1.8013153009    -2.7575192287     0.0341819228
   22      H       0.5897274926    -2.9893197333     0.3794010873
   23      H       2.7128553387    -1.8922559758     1.3104367696
   24      H       2.2376827113     1.4844899935     0.7513729180
   25      H       1.2783106749     3.6947887508     0.3618390746
   26      H      -1.0550929825     3.9131189815    -0.4255141794
   27      H      -2.4701452810     1.9233638694    -0.6261285293
   28      H      -4.8434038847    -1.1825374200    -1.1835331075
   29      H      -4.1311102988    -2.3330258747    -0.0399243804
   30      H      -3.3439693261    -2.0194459816    -1.6096222959
 ----------------------------------------------------------------
 Molecular Point Group                 C1    NOp =  1
 Largest Abelian Subgroup              C1    NOp =  1
 Nuclear Repulsion Energy =        1171.90096029 hartrees
 There are       61 alpha and       61 beta electrons
 Requested basis set is 6-31G(d)
 There are 94 shells and 281 basis functions

 Total QAlloc Memory Limit   4000 MB
 Mega-Array Size       188 MB
 MEM_STATIC part       192 MB
 A cutoff of  1.0D-08 yielded   2758 shell pairs
 There are     26662 function pairs
 Smallest overlap matrix eigenvalue = 2.26E-04

 Scale SEOQF with 1.000000e-01/1.000000e-01/1.000000e-01

 Standard Electronic Orientation quadrupole field applied
 Nucleus-field energy     =     0.0000000473 hartrees
 Guess from superposition of atomic densities
 Warning:  Energy on first SCF cycle will be non-variational
 SAD guess density has 122.000000 electrons

 -----------------------------------------------------------------------
  General SCF calculation program by
  Eric Jon Sundstrom, Paul Horn, Yuezhi Mao, Dmitri Zuev, Alec White,
  David Stuck, Shaama M.S., Shane Yost, Joonho Lee, David Small,
  Daniel Levine, Susi Lehtola, Hugh Burton, Evgeny Epifanovsky,
  Bang C. Huynh
 -----------------------------------------------------------------------
 Exchange:     0.2000 Hartree-Fock + 0.0800 Slater + 0.7200 B88
 Correlation:  0.1900 VWN1RPA + 0.8100 LYP
 Using SG-1 standard quadrature grid
 A restricted SCF calculation will be
 performed using DIIS
 SCF converges when DIIS error is below 1.0e-05
 ---------------------------------------
  Cycle       Energy         DIIS error
 ---------------------------------------
    1    -799.7967371222      4.84e-02  
    2    -795.4580295513      4.98e-03  
    3    -795.3160709874      6.29e-03  
    4    -795.6973220161      1.28e-03  
    5    -795.7124667628      4.28e-04  
    6    -795.7139481589      2.09e-04  
    7    -795.7143856499      5.97e-05  
    8    -795.7144163009      2.18e-05  
    9    -795.7144211789      5.84e-06  Convergence criterion met
 ---------------------------------------
 SCF time:   CPU 61.30s  wall 61.00s 
 SCF   energy in the final basis set =     -795.7144211789
 Total energy in the final basis set =     -795.7144211789
 
 --------------------------------------------------------------
 
                    Orbital Energies (a.u.)
 --------------------------------------------------------------
 
 Alpha MOs
 -- Occupied --
-24.7313 -24.7262 -14.3423 -10.3472 -10.2195 -10.2102 -10.2098 -10.1947
-10.1933 -10.1918 -10.1889 -10.1845 -10.1819 -10.1814 -10.1802 -10.1800
-10.1791  -1.2740  -1.2140  -0.9480  -0.8710  -0.8259  -0.7970  -0.7548
 -0.7415  -0.7232  -0.7123  -0.6635  -0.6221  -0.6152  -0.6122  -0.5756
 -0.5595  -0.5333  -0.5116  -0.5092  -0.5010  -0.4932  -0.4683  -0.4620
 -0.4571  -0.4345  -0.4327  -0.4267  -0.4219  -0.4121  -0.4080  -0.4027
 -0.3992  -0.3915  -0.3820  -0.3762  -0.3739  -0.3384  -0.3312  -0.3242
 -0.2963  -0.2512  -0.2417  -0.2341  -0.1858
 -- Virtual --
 -0.0348  -0.0031   0.0195   0.0615   0.0882   0.1008   0.1090   0.1127
  0.1311   0.1363   0.1456   0.1565   0.1607   0.1613   0.1712   0.1795
  0.1867   0.1932   0.2024   0.2047   0.2095   0.2261   0.2446   0.2752
  0.2815   0.2999   0.3177   0.3312   0.3378   0.3702   0.3807   0.4091
  0.4118   0.4730   0.4883   0.4962   0.5075   0.5152   0.5204   0.5314
  0.5348   0.5438   0.5543   0.5630   0.5703   0.5720   0.5747   0.5866
  0.5956   0.6092   0.6135   0.6201   0.6222   0.6266   0.6272   0.6526
  0.6562   0.6673   0.6702   0.6827   0.7132   0.7218   0.7319   0.7530
  0.7741   0.7933   0.8041   0.8116   0.8292   0.8413   0.8417   0.8482
  0.8593   0.8649   0.8783   0.8919   0.8954   0.9079   0.9162   0.9217
  0.9328   0.9440   0.9558   0.9644   0.9832   0.9936   1.0067   1.0216
  1.0364   1.0410   1.0714   1.0825   1.1042   1.1197   1.1199   1.1478
  1.1562   1.1721   1.1880   1.2086   1.2208   1.2349   1.2563   1.2898
  1.2925   1.3172   1.3270   1.3543   1.3634   1.3852   1.4060   1.4162
  1.4217   1.4331   1.4542   1.4667   1.4767   1.4853   1.4962   1.5081
  1.5139   1.5431   1.5625   1.6024   1.6293   1.6894   1.6920   1.7304
  1.7411   1.7584   1.7756   1.7993   1.8089   1.8150   1.8451   1.8500
  1.8624   1.8747   1.8926   1.9114   1.9189   1.9285   1.9433   1.9560
  1.9786   1.9866   2.0059   2.0102   2.0194   2.0256   2.0459   2.0514
  2.0774   2.0845   2.1080   2.1294   2.1431   2.1481   2.1619   2.1686
  2.2063   2.2194   2.2231   2.2494   2.2558   2.2690   2.2831   2.3017
  2.3205   2.3360   2.3462   2.3642   2.3721   2.4275   2.4639   2.4859
  2.5187   2.5300   2.5591   2.5669   2.6097   2.6292   2.6345   2.6776
  2.6811   2.6865   2.7080   2.7363   2.7708   2.7853   2.8031   2.8289
  2.8868   2.9264   2.9583   2.9957   3.0316   3.0571   3.1325   3.1738
  3.2446   3.4421   3.5208   4.0956   4.1043   4.1168   4.1304   4.1456
  4.1643   4.2049   4.2654   4.3010   4.3254   4.3562   4.3752   4.5236
  4.5549   4.7874   4.8628   5.2464
 --------------------------------------------------------------
 
          Ground-State Mulliken Net Atomic Charges

     Atom                 Charge (a.u.)
  ----------------------------------------
      1 C                    -0.321514
      2 N                    -0.458601
      3 C                     0.262063
      4 C                    -0.194443
      5 C                    -0.200146
      6 C                     0.120523
      7 C                    -0.350605
      8 C                     0.564420
      9 F                    -0.236038
     10 F                    -0.251950
     11 C                     0.094280
     12 C                     0.075970
     13 C                    -0.190767
     14 C                    -0.135181
     15 C                    -0.129813
     16 C                    -0.201950
     17 C                    -0.308628
     18 H                     0.176286
     19 H                     0.137282
     20 H                     0.152105
     21 H                     0.125239
     22 H                     0.125263
     23 H                     0.165110
     24 H                     0.128779
     25 H                     0.126710
     26 H                     0.125036
     27 H                     0.146725
     28 H                     0.154618
     29 H                     0.132861
     30 H                     0.166366
  ----------------------------------------
  Sum of atomic charges =     0.000000

 -----------------------------------------------------------------
                    Cartesian Multipole Moments
 -----------------------------------------------------------------
    Charge (ESU x 10^10)
                 0.0000
    Dipole Moment (Debye)
         X      -2.4043      Y      -0.6141      Z       0.7378
       Tot       2.5889
    Quadrupole Moments (Debye-Ang)
        XX     -91.6702     XY       1.3186     YY     -88.6307
        XZ       2.4314     YZ      -0.0075     ZZ     -99.3276
    Octopole Moments (Debye-Ang^2)
       XXX     -11.7724    XXY      -2.4450    XYY      15.9383
       YYY       0.1412    XXZ       1.7177    XYZ      -2.0937
       YYZ      -3.1157    XZZ      17.8284    YZZ      -6.6357
       ZZZ     -10.7343
    Hexadecapole Moments (Debye-Ang^3)
      XXXX   -3731.8205   XXXY      15.5630   XXYY    -839.1313
      XYYY     -17.1550   YYYY   -1394.6882   XXXZ      -0.2753
      XXYZ       7.4106   XYYZ      11.1769   YYYZ     -15.2591
      XXZZ    -659.7705   XYZZ     -10.6279   YYZZ    -303.2438
      XZZZ     -24.5372   YZZZ      -0.9343   ZZZZ    -252.4523
 -----------------------------------------------------------------
Archival summary:
1\1\nia1977.scinet.local\SP\ProcedureUnspecified\6-31G*\211413\rhickman\MonFeb718:29:032022MonFeb718:29:032022\0\\#,ProcedureUnspecified,6-31G*,\\0,1\F\C,1,1.32907\C,2,1.32149,1,127.333\H,3,1.08071,2,116.171,1,175.672,0\F,2,1.33553,1,108.95,3,179.048,0\C,3,1.46466,2,126.158,1,1.08179,0\C,6,1.37687,3,117.663,2,129.706,0\H,7,1.08087,6,119.38,3,1.29925,0\C,7,1.39295,6,121.766,3,-178.718,0\H,9,1.07852,7,118.355,6,-178.44,0\C,9,1.38045,7,121.103,6,0.124013,0\N,11,1.39481,9,122.49,7,-179.759,0\C,6,1.42205,3,123.23,2,-49.0638,0\C,13,1.41117,6,122.437,3,-5.32052,0\H,14,1.07874,13,119.156,6,-5.33231,0\C,14,1.36646,13,121.352,6,175.35,0\H,16,1.07989,14,120.206,13,-179.918,0\C,16,1.40026,14,120.026,13,-1.27342,0\H,18,1.08006,16,119.732,14,-175.666,0\C,18,1.3671,16,119.964,14,4.94663,0\H,20,1.0783,18,119.914,16,-179.455,0\C,20,1.41097,18,121.32,16,-1.45414,0\C,12,1.44355,11,118.06,9,-20.7778,0\H,23,1.08811,12,109.6,11,-44.1137,0\H,23,1.09115,12,108.037,11,-162.228,0\H,23,1.09926,12,113.294,11,78.2119,0\C,12,1.44971,11,117.492,9,118.335,0\H,27,1.08629,12,110.627,11,26.9097,0\H,27,1.09226,12,109.736,11,147.496,0\H,27,1.09893,12,110.84,11,-93.0853,0\\\@

 Total job time:  61.99s(wall), 61.55s(cpu) 
 Mon Feb  7 18:29:03 2022

        *************************************************************
        *                                                           *
        *  Thank you very much for using Q-Chem.  Have a nice day.  *
        *                                                           *
        *************************************************************


