33
 energy: -42.361220956911 gnorm: 0.000046077972 xtb: 6.4.1 (23d549d)
C        -4.17721454080000    2.00467096370000    0.19307306000000
C        -2.96648685850000    2.15430353770000   -0.33627818550000
C        -1.93086156670000    1.15811710260000   -0.31904529720000
C        -0.67241278700000    1.26669849670000   -0.84217092200000
C         0.14951940610000    0.12416954310000   -0.68421540910000
C         1.56589965720000    0.21177722680000   -1.20914990660000
C         2.29327995670000    1.41743107570000   -0.58371217250000
C         2.63013527850000    1.16125449500000    0.88071848330000
C         3.55248964660000   -0.04591177390000    1.00107549200000
C         2.87279310370000   -1.27100476520000    0.40062704960000
C         2.47494980100000   -1.01018222350000   -1.05070609400000
C        -0.52518740770000   -0.89502354720000   -0.04712159930000
C        -0.17237271860000   -2.26363704570000    0.25396072920000
C        -0.75845254380000   -2.99453085300000    1.19797775760000
S        -2.14531162340000   -0.40356465750000    0.39807808610000
H        -4.91550281830000    2.78550684250000    0.14935141850000
H        -4.46274620720000    1.09070891970000    0.68741218110000
H        -2.69359125280000    3.07915296560000   -0.82948234160000
H        -0.34920325230000    2.15622642550000   -1.35514240570000
H         1.46748921850000    0.40868256220000   -2.28690690470000
H         1.68926956310000    2.32066370750000   -0.66822325900000
H         3.21990101760000    1.58693040010000   -1.13820365720000
H         1.70933994920000    0.97491366190000    1.43838131890000
H         3.10957853660000    2.04490423960000    1.30765300980000
H         3.79570876740000   -0.23243324250000    2.04905656510000
H         4.48662601560000    0.15665100520000    0.47084805790000
H         1.99071938260000   -1.50724399170000    0.99656286750000
H         3.54562480050000   -2.13092111490000    0.44165293670000
H         2.01019314390000   -1.89161518470000   -1.49386304670000
H         3.38502080310000   -0.81300018970000   -1.62526046440000
H         0.58945497230000   -2.71518910490000   -0.36236586730000
H        -1.52522202410000   -2.58819219860000    1.83676525020000
H        -0.48548861360000   -4.02181012320000    1.36382146100000
