
Running Job 1 of 1 fragments/A030/conf-5/spe_input.inp
qchem fragments/A030/conf-5/spe_input.inp_91296.0 /gpfs/fs0/scratch/a/aspuru/rhickman/descriptor_computation/qchem91296/ 0
/scinet/niagara/software/commercial/qc52/exe/qcprog.exe_s fragments/A030/conf-5/spe_input.inp_91296.0 /gpfs/fs0/scratch/a/aspuru/rhickman/descriptor_computation/qchem91296/
                  Welcome to Q-Chem
     A Quantum Leap Into The Future Of Chemistry


 Q-Chem 5.2, Q-Chem, Inc., Pleasanton, CA (2019)

 License issued to: SRG Alan Aspuru-Guzik, University of Toronto

 Yihan Shao,  Zhengting Gan,  E. Epifanovsky,  A. T. B. Gilbert,  M. Wormit,  
 J. Kussmann,  A. W. Lange,  A. Behn,  Jia Deng,  Xintian Feng,  D. Ghosh,  
 M. Goldey,  P. R. Horn,  L. D. Jacobson,  I. Kaliman,  T. Kus,  A. Landau,  
 Jie Liu,  E. I. Proynov,  R. M. Richard,  R. P. Steele,  E. J. Sundstrom,  
 H. L. Woodcock III,  P. M. Zimmerman,  D. Zuev,  B. Albrecht,  E. Alguire,  
 S. A. Baeppler,  D. Barton,  Z. Benda,  Y. A. Bernard,  E. J. Berquist,  
 K. B. Bravaya,  H. Burton,  D. Casanova,  Chun-Min Chang,  Yunqing Chen,  
 A. Chien,  K. D. Closser,  M. P. Coons,  S. Coriani,  S. Dasgupta,  
 A. L. Dempwolff,  M. Diedenhofen,  Hainam Do,  R. G. Edgar,  Po-Tung Fang,  
 S. Faraji,  S. Fatehi,  Qingguo Feng,  K. D. Fenk,  J. Fosso-Tande,  
 J. Gayvert,  Qinghui Ge,  A. Ghysels,  G. Gidofalvi,  J. Gomes,  
 J. Gonthier,  A. Gunina,  D. Hait,  M. W. D. Hanson-Heine,  
 P. H. P. Harbach,  A. W. Hauser,  M. F. Herbst,  J. E. Herr,  
 E. G. Hohenstein,  Z. C. Holden,  Kerwin Hui,  B. C. Huynh,  T.-C. Jagau,  
 Hyunjun Ji,  B. Kaduk,  K. Khistyaev,  Jaehoon Kim,  P. Klunzinger,  K. Koh,  
 D. Kosenkov,  L. Koulias,  T. Kowalczyk,  C. M. Krauter,  A. Kunitsa,  
 Ka Un Lao,  A. Laurent,  K. V. Lawler,  Joonho Lee,  D. Lefrancois,  
 S. Lehtola,  D. S. Levine,  Yi-Pei Li,  You-Sheng Lin,  Fenglai Liu,  
 E. Livshits,  A. Luenser,  P. Manohar,  E. Mansoor,  S. F. Manzer,  
 Shan-Ping Mao,  Yuezhi Mao,  N. Mardirossian,  A. V. Marenich,  
 T. Markovich,  L. A. Martinez-Martinez,  S. A. Maurer,  N. J. Mayhall,  
 S. C. McKenzie,  J.-M. Mewes,  P. Morgante,  A. F. Morrison,  
 J. W. Mullinax,  K. Nanda,  T. S. Nguyen-Beck,  R. Olivares-Amaya,  
 J. A. Parkhill,  Zheng Pei,  T. M. Perrine,  F. Plasser,  P. Pokhilko,  
 S. Prager,  A. Prociuk,  E. Ramos,  D. R. Rehn,  F. Rob,  M. Scheurer,  
 M. Schneider,  N. Sergueev,  S. M. Sharada,  S. Sharma,  D. W. Small,  
 T. Stauch,  T. Stein,  Yu-Chuan Su,  A. J. W. Thom,  A. Tkatchenko,  
 T. Tsuchimochi,  N. M. Tubman,  L. Vogt,  M. L. Vidal,  O. Vydrov,  
 M. A. Watson,  J. Wenzel,  M. de Wergifosse,  T. A. Wesolowski,  A. White,  
 J. Witte,  A. Yamada,  Jun Yang,  K. Yao,  S. Yeganeh,  S. R. Yost,  
 Zhi-Qiang You,  A. Zech,  Igor Ying Zhang,  Xing Zhang,  Yan Zhao,  
 Ying Zhu,  B. R. Brooks,  G. K. L. Chan,  C. J. Cramer,  M. S. Gordon,  
 W. J. Hehre,  A. Klamt,  M. W. Schmidt,  C. D. Sherrill,  D. G. Truhlar,  
 A. Aspuru-Guzik,  R. Baer,  A. T. Bell,  N. A. Besley,  Jeng-Da Chai,  
 A. E. DePrince, III,  R. A. DiStasio Jr.,  A. Dreuw,  B. D. Dunietz,  
 T. R. Furlani,  Chao-Ping Hsu,  Yousung Jung,  Jing Kong,  D. S. Lambrecht,  
 WanZhen Liang,  C. Ochsenfeld,  V. A. Rassolov,  L. V. Slipchenko,  
 J. E. Subotnik,  T. Van Voorhis,  J. M. Herbert,  A. I. Krylov,  
 P. M. W. Gill,  M. Head-Gordon

 Contributors to earlier versions of Q-Chem not listed above: 
 R. D. Adamson,  B. Austin,  J. Baker,  G. J. O. Beran,  K. Brandhorst,  
 S. T. Brown,  E. F. C. Byrd,  A. K. Chakraborty,  C.-L. Cheng,  
 Siu Hung Chien,  D. M. Chipman,  D. L. Crittenden,  H. Dachsel,  
 R. J. Doerksen,  A. D. Dutoi,  L. Fusti-Molnar,  W. A. Goddard III,  
 A. Golubeva-Zadorozhnaya,  S. R. Gwaltney,  G. Hawkins,  A. Heyden,  
 S. Hirata,  G. Kedziora,  F. J. Keil,  C. Kelley,  Jihan Kim,  R. A. King,  
 R. Z. Khaliullin,  P. P. Korambath,  W. Kurlancheek,  A. M. Lee,  M. S. Lee,  
 S. V. Levchenko,  Ching Yeh Lin,  D. Liotard,  R. C. Lochan,  I. Lotan,  
 P. E. Maslen,  N. Nair,  D. P. O'Neill,  D. Neuhauser,  E. Neuscamman,  
 C. M. Oana,  R. Olson,  B. Peters,  R. Peverati,  P. A. Pieniazek,  
 Y. M. Rhee,  J. Ritchie,  M. A. Rohrdanz,  E. Rosta,  N. J. Russ,  
 H. F. Schaefer III,  N. E. Schultz,  N. Shenvi,  A. C. Simmonett,  A. Sodt,  
 D. Stuck,  K. S. Thanthiriwatte,  V. Vanovschi,  Tao Wang,  A. Warshel,  
 C. F. Williams,  Q. Wu,  X. Xu,  W. Zhang

 Please cite Q-Chem as follows:
 Y. Shao et al., Mol. Phys. 113, 184-215 (2015)
 DOI: 10.1080/00268976.2014.952696

 Q-Chem 5.2.1 for Intel X86 EM64T Linux

 Parts of Q-Chem use Armadillo 8.300.2 (Tropical Shenanigans).
 http://arma.sourceforge.net/

 Q-Chem begins on Mon Feb  7 15:12:26 2022  

Host: 
0

     Scratch files written to /gpfs/fs0/scratch/a/aspuru/rhickman/descriptor_computation/qchem91296//
 Jul1719 |scratch|qcdevops|jenkins|workspace|build_RNUM -1
Processing $rem in /scinet/niagara/software/commercial/qc52/config/preferences:
	 MEM_TOTAL  4000 
NAlpha2: 222
NElect   222
Mult     1

Checking the input file for inconsistencies... 	...done.

--------------------------------------------------------------
User input:
--------------------------------------------------------------
$molecule
0 1
C         4.71789139700000   -1.71022163600000    0.70948128590000
O         3.66773977890000   -2.44145718190000    0.09232936630000
C         2.43248798660000   -2.16501121120000    0.52676918070000
C         1.40729538060000   -2.98637088750000   -0.17139386690000
C         0.19710841040000   -2.41457700170000   -0.59209195810000
N        -0.01144069450000   -1.03255910560000   -0.52163882360000
C         1.02726100800000   -0.16169947190000   -0.84135643740000
C         1.18675759370000    1.03924865020000   -0.14935835130000
C         2.24403236620000    1.87218912280000   -0.46497365500000
C         2.45473010970000    3.15402312790000    0.28816193090000
F         1.45661222090000    3.45859185000000    1.12546527110000
F         3.57999099930000    3.12444048340000    1.02899683770000
F         2.59066022150000    4.20973213100000   -0.53823363120000
C         3.15965179070000    1.53734249440000   -1.45651709910000
C         2.99363034710000    0.34774488780000   -2.14400152860000
C         1.93871310640000   -0.49290010090000   -1.84678270540000
C        -1.24791209640000   -0.54380460410000   -0.08813986110000
C        -1.96959771530000   -1.22011836770000    0.89542292460000
C        -3.19192496730000   -0.74130007720000    1.31118717750000
C        -3.73956564440000    0.42371056220000    0.76580192920000
C        -5.03218963600000    0.86864888860000    1.25415980350000
C        -5.75203239390000    1.90829025950000    0.85657785500000
F        -5.46168331660000    2.79105761890000   -0.09208443630000
F        -6.93581152110000    2.21693087530000    1.38429803260000
C        -3.00981838760000    1.09577272740000   -0.21822535350000
C        -1.78714718620000    0.61921929090000   -0.63908090380000
C        -0.78968555920000   -3.24107036320000   -1.12888503020000
C        -0.57446352480000   -4.59883245540000   -1.25795422680000
C         0.63608097380000   -5.15664457890000   -0.87464497850000
C         1.62104440810000   -4.34999516630000   -0.33600208090000
O         2.19614732750000   -1.36894236180000    1.40069692310000
H         5.64188435680000   -2.07498869870000    0.26902123750000
H         4.71233344520000   -1.87494132940000    1.78860647110000
H         4.59516527050000   -0.64198072380000    0.51728339540000
H         0.50454979320000    1.29922806850000    0.64422728850000
H         3.98127169660000    2.19964378800000   -1.67945121950000
H         3.69083344690000    0.07478189570000   -2.92093048420000
H         1.81642933370000   -1.41736455270000   -2.39170520490000
H        -1.55570080590000   -2.11347098560000    1.33787510850000
H        -3.73366124830000   -1.27203319380000    2.08003530510000
H        -5.47635354790000    0.28134604920000    2.04498872320000
H        -3.39786061850000    1.99544562380000   -0.66595437590000
H        -1.24193855230000    1.14636595810000   -1.40780789070000
H        -1.72226995640000   -2.80200084270000   -1.45073830880000
H        -1.34949821920000   -5.22351721210000   -1.67566631170000
H         0.80779984050000   -6.21530171770000   -0.99079586570000
H         2.56134073120000   -4.77188986070000   -0.01636112110000
$end

$rem
BASIS = 6-31G*
GUI = 2
METHOD = B3LYP
PRINT_ORBITALS false
MOLDEN_FORMAT false
--------------------------------------------------------------
 ----------------------------------------------------------------
             Standard Nuclear Orientation (Angstroms)
    I     Atom           X                Y                Z
 ----------------------------------------------------------------
    1      C       4.8386564248     0.0787112776    -1.3065059962
    2      O       4.1305943434     1.1315899724    -0.6673699547
    3      C       2.8269548380     1.2165605375    -0.9577341409
    4      C       2.1786089802     2.3526343070    -0.2491670818
    5      C       0.9112458412     2.2029652549     0.3338230411
    6      N       0.2973116971     0.9479760358     0.4145495246
    7      C       1.0625189331    -0.1752687549     0.7183522685
    8      C       0.7785937821    -1.4089508739     0.1318440914
    9      C       1.5721288751    -2.5020436563     0.4262638949
   10      C       1.3057540815    -3.8320156657    -0.2178821211
   11      F       0.1717223610    -3.8711170858    -0.9267695916
   12      F       2.2952072038    -4.1921656084    -1.0588328326
   13      F       1.2193647182    -4.8250055932     0.6890004520
   14      C       2.6548458772    -2.3994085999     1.2927680987
   15      C       2.9287067843    -1.1748198518     1.8764829501
   16      C       2.1418262366    -0.0739617286     1.5993479528
   17      C      -1.0700453819     0.8315337157     0.1454033829
   18      C      -1.6694431328     1.6318231697    -0.8271629741
   19      C      -3.0183867888     1.5216471045    -1.0809798923
   20      C      -3.8180308451     0.6146528096    -0.3791708710
   21      C      -5.2320988433     0.5534693304    -0.7016744982
   22      C      -6.1752654954    -0.1913365075    -0.1423891398
   23      F      -6.0499155280    -1.0591151018     0.8550017753
   24      F      -7.4504713055    -0.1584680883    -0.5269023990
   25      C      -3.2096790707    -0.1840134576     0.5927080402
   26      C      -1.8604842696    -0.0757749671     0.8517548633
   27      C       0.2820166554     3.3221145599     0.8784108504
   28      C       0.9019520874     4.5557023951     0.8574729951
   29      C       2.1698857519     4.6943208929     0.3128378305
   30      C       2.8030210649     3.5944768655    -0.2353001119
   31      O       2.2659630170     0.4765622573    -1.7265143052
   32      H       5.8739020095     0.1726041690    -0.9898456763
   33      H       4.7562067205     0.1691573415    -2.3912622773
   34      H       4.4293504482    -0.8875184153    -1.0031758531
   35      H      -0.0376014733    -1.4988429690    -0.5670977267
   36      H       3.2644751594    -3.2645410513     1.5008543193
   37      H       3.7610128720    -1.0781849060     2.5562975006
   38      H       2.3622801954     0.8763201598     2.0629132221
   39      H      -1.0648185565     2.3276354694    -1.3887926135
   40      H      -3.4650809605     2.1423870309    -1.8434951665
   41      H      -5.5721289001     1.1969792705    -1.5003553503
   42      H      -3.7910361371    -0.8933538413     1.1577828603
   43      H      -1.4094527125    -0.6941672862     1.6134888836
   44      H      -0.6944403907     3.2081152359     1.3252005391
   45      H       0.4000809013     5.4112018876     1.2836644306
   46      H       2.6587692409     5.6559468900     0.3115297586
   47      H       3.7819794596     3.6899452823    -0.6789766768
 ----------------------------------------------------------------
 Molecular Point Group                 C1    NOp =  1
 Largest Abelian Subgroup              C1    NOp =  1
 Nuclear Repulsion Energy =        3079.07924509 hartrees
 There are      111 alpha and      111 beta electrons
 Requested basis set is 6-31G(d)
 There are 156 shells and 497 basis functions

 Total QAlloc Memory Limit   4000 MB
 Mega-Array Size       188 MB
 MEM_STATIC part       192 MB
 A cutoff of  1.0D-08 yielded   5213 shell pairs
 There are     55584 function pairs
 Smallest overlap matrix eigenvalue = 3.26E-04

 Scale SEOQF with 1.000000e-02/1.000000e-02/1.000000e-01

 Standard Electronic Orientation quadrupole field applied
 Nucleus-field energy     =    -0.0000000030 hartrees
 Guess from superposition of atomic densities
 Warning:  Energy on first SCF cycle will be non-variational
 SAD guess density has 222.000000 electrons

 -----------------------------------------------------------------------
  General SCF calculation program by
  Eric Jon Sundstrom, Paul Horn, Yuezhi Mao, Dmitri Zuev, Alec White,
  David Stuck, Shaama M.S., Shane Yost, Joonho Lee, David Small,
  Daniel Levine, Susi Lehtola, Hugh Burton, Evgeny Epifanovsky,
  Bang C. Huynh
 -----------------------------------------------------------------------
 Exchange:     0.2000 Hartree-Fock + 0.0800 Slater + 0.7200 B88
 Correlation:  0.1900 VWN1RPA + 0.8100 LYP
 Using SG-1 standard quadrature grid
 A restricted SCF calculation will be
 performed using DIIS
 SCF converges when DIIS error is below 1.0e-05
 ---------------------------------------
  Cycle       Energy         DIIS error
 ---------------------------------------
    1   -1597.9486235191      3.64e-02  
    2   -1589.9768890085      4.18e-03  
    3   -1589.4099810261      6.37e-03  
    4   -1590.4135213339      1.39e-03  
    5   -1590.4608650934      4.79e-04  
    6   -1590.4660863252      1.77e-04  
    7   -1590.4669324654      5.07e-05  
    8   -1590.4669992097      2.17e-05  
    9   -1590.4670131274      6.53e-06  Convergence criterion met
 ---------------------------------------
 SCF time:   CPU 204.52s  wall 205.00s 
 SCF   energy in the final basis set =    -1590.4670131274
 Total energy in the final basis set =    -1590.4670131274
 
 --------------------------------------------------------------
 
                    Orbital Energies (a.u.)
 --------------------------------------------------------------
 
 Alpha MOs
 -- Occupied --
-24.7433 -24.7325 -24.7189 -24.7118 -24.7102 -19.1963 -19.1349 -14.3779
-10.4225 -10.3547 -10.3164 -10.2442 -10.2393 -10.2390 -10.2333 -10.2111
-10.2089 -10.2051 -10.2037 -10.2028 -10.2024 -10.2007 -10.1988 -10.1982
-10.1978 -10.1968 -10.1965 -10.1944 -10.1921 -10.1914 -10.1912  -1.2982
 -1.2840  -1.2231  -1.2090  -1.2022  -1.1127  -1.0208  -0.9918  -0.8784
 -0.8751  -0.8593  -0.8092  -0.7871  -0.7826  -0.7762  -0.7557  -0.7537
 -0.7319  -0.7185  -0.6930  -0.6556  -0.6508  -0.6329  -0.6259  -0.6181
 -0.6179  -0.5940  -0.5824  -0.5720  -0.5716  -0.5708  -0.5587  -0.5474
 -0.5353  -0.5243  -0.5177  -0.5076  -0.5007  -0.4922  -0.4841  -0.4802
 -0.4747  -0.4667  -0.4614  -0.4547  -0.4509  -0.4491  -0.4458  -0.4424
 -0.4420  -0.4397  -0.4308  -0.4269  -0.4227  -0.4123  -0.4107  -0.4057
 -0.4041  -0.4001  -0.3914  -0.3875  -0.3867  -0.3837  -0.3784  -0.3714
 -0.3691  -0.3641  -0.3576  -0.3550  -0.3483  -0.3321  -0.3067  -0.2967
 -0.2806  -0.2704  -0.2672  -0.2609  -0.2575  -0.2377  -0.1887
 -- Virtual --
 -0.0451  -0.0336  -0.0242  -0.0112  -0.0013   0.0083   0.0431   0.0678
  0.0856   0.0902   0.0992   0.1137   0.1186   0.1274   0.1348   0.1410
  0.1419   0.1507   0.1541   0.1572   0.1580   0.1587   0.1594   0.1719
  0.1734   0.1794   0.1810   0.1840   0.1860   0.1899   0.2024   0.2129
  0.2314   0.2432   0.2460   0.2532   0.2660   0.2753   0.2811   0.2878
  0.2936   0.2982   0.3059   0.3155   0.3221   0.3341   0.3475   0.3673
  0.3691   0.3885   0.3903   0.4116   0.4168   0.4217   0.4442   0.4692
  0.4791   0.4801   0.4846   0.4959   0.5033   0.5050   0.5123   0.5155
  0.5223   0.5291   0.5334   0.5374   0.5441   0.5467   0.5511   0.5628
  0.5661   0.5670   0.5701   0.5775   0.5784   0.5836   0.5869   0.5879
  0.5900   0.5928   0.5962   0.5989   0.6017   0.6043   0.6094   0.6121
  0.6181   0.6251   0.6360   0.6377   0.6493   0.6513   0.6530   0.6576
  0.6706   0.6777   0.6881   0.6964   0.7115   0.7247   0.7284   0.7315
  0.7365   0.7764   0.7796   0.7959   0.8042   0.8070   0.8093   0.8170
  0.8260   0.8304   0.8336   0.8376   0.8402   0.8451   0.8468   0.8494
  0.8583   0.8677   0.8711   0.8776   0.8832   0.8855   0.8932   0.8991
  0.9120   0.9218   0.9346   0.9457   0.9633   0.9671   0.9753   0.9823
  0.9898   1.0048   1.0063   1.0119   1.0241   1.0298   1.0346   1.0461
  1.0678   1.0753   1.0810   1.0906   1.1027   1.1049   1.1104   1.1265
  1.1434   1.1446   1.1488   1.1554   1.1602   1.1626   1.1677   1.1750
  1.1835   1.1947   1.2008   1.2079   1.2174   1.2212   1.2243   1.2384
  1.2541   1.2613   1.2705   1.2788   1.2874   1.3045   1.3153   1.3348
  1.3389   1.3424   1.3457   1.3528   1.3611   1.3695   1.3843   1.3909
  1.3951   1.4028   1.4053   1.4128   1.4309   1.4366   1.4434   1.4480
  1.4536   1.4578   1.4669   1.4690   1.4726   1.4781   1.4818   1.4865
  1.4936   1.5010   1.5081   1.5151   1.5193   1.5398   1.5526   1.5983
  1.6140   1.6357   1.6452   1.6594   1.6671   1.6830   1.6959   1.7058
  1.7164   1.7289   1.7438   1.7501   1.7628   1.7706   1.7819   1.7837
  1.7849   1.7950   1.8030   1.8123   1.8257   1.8326   1.8378   1.8438
  1.8503   1.8626   1.8627   1.8701   1.8708   1.8907   1.8950   1.9060
  1.9123   1.9152   1.9347   1.9398   1.9509   1.9600   1.9709   1.9736
  1.9819   1.9854   1.9913   1.9974   2.0074   2.0129   2.0171   2.0219
  2.0263   2.0350   2.0395   2.0421   2.0490   2.0655   2.0734   2.0787
  2.0871   2.1035   2.1038   2.1055   2.1132   2.1268   2.1383   2.1409
  2.1466   2.1536   2.1616   2.1626   2.1665   2.1806   2.1924   2.2026
  2.2205   2.2355   2.2396   2.2604   2.2770   2.2859   2.2925   2.2950
  2.3010   2.3038   2.3106   2.3224   2.3299   2.3348   2.3376   2.3546
  2.3651   2.4056   2.4227   2.4315   2.4568   2.4670   2.4703   2.4964
  2.5248   2.5334   2.5520   2.5760   2.5855   2.6035   2.6080   2.6260
  2.6343   2.6416   2.6506   2.6552   2.6699   2.6825   2.6884   2.6928
  2.7003   2.7170   2.7353   2.7408   2.7659   2.7784   2.7818   2.7948
  2.7996   2.8085   2.8334   2.8359   2.8659   2.8882   2.9071   2.9240
  2.9308   2.9458   2.9726   3.0043   3.0195   3.0419   3.0519   3.0571
  3.0685   3.1187   3.1354   3.1538   3.1577   3.2474   3.3018   3.3328
  3.4415   3.4724   3.4854   4.0210   4.0787   4.0935   4.0979   4.1119
  4.1143   4.1324   4.1488   4.1666   4.1841   4.2133   4.2513   4.2680
  4.2874   4.3206   4.3415   4.3431   4.3629   4.3920   4.4386   4.4588
  4.5020   4.5338   4.5827   4.7153   4.7488   4.7760   4.8153   4.8323
  5.2901   5.6607
 --------------------------------------------------------------
 
          Ground-State Mulliken Net Atomic Charges

     Atom                 Charge (a.u.)
  ----------------------------------------
      1 C                    -0.224827
      2 O                    -0.440213
      3 C                     0.545641
      4 C                     0.062001
      5 C                     0.258634
      6 N                    -0.649059
      7 C                     0.276492
      8 C                    -0.185946
      9 C                    -0.012890
     10 C                     0.776056
     11 F                    -0.263022
     12 F                    -0.266051
     13 F                    -0.271219
     14 C                    -0.167999
     15 C                    -0.136225
     16 C                    -0.169121
     17 C                     0.295275
     18 C                    -0.168997
     19 C                    -0.206405
     20 C                     0.201055
     21 C                    -0.299772
     22 C                     0.541111
     23 F                    -0.235560
     24 F                    -0.249092
     25 C                    -0.204373
     26 C                    -0.172150
     27 C                    -0.166845
     28 C                    -0.129795
     29 C                    -0.132761
     30 C                    -0.169446
     31 O                    -0.475698
     32 H                     0.163052
     33 H                     0.170652
     34 H                     0.178437
     35 H                     0.174499
     36 H                     0.147980
     37 H                     0.139564
     38 H                     0.153190
     39 H                     0.153293
     40 H                     0.132365
     41 H                     0.158922
     42 H                     0.143699
     43 H                     0.148927
     44 H                     0.153285
     45 H                     0.138661
     46 H                     0.134363
     47 H                     0.150312
  ----------------------------------------
  Sum of atomic charges =     0.000000

 -----------------------------------------------------------------
                    Cartesian Multipole Moments
 -----------------------------------------------------------------
    Charge (ESU x 10^10)
                 0.0000
    Dipole Moment (Debye)
         X       2.1384      Y       3.9982      Z       1.3610
       Tot       4.7340
    Quadrupole Moments (Debye-Ang)
        XX    -161.2387     XY      -0.5792     YY    -169.6386
        XZ       3.6163     YZ      -3.2443     ZZ    -170.9401
    Octopole Moments (Debye-Ang^2)
       XXX     109.7184    XXY     -15.7478    XYY     -11.1388
       YYY      17.9271    XXZ     -27.5257    XYZ      -3.3430
       YYZ       4.6273    XZZ     -14.8089    YZZ     -28.8388
       ZZZ     -15.7211
    Hexadecapole Moments (Debye-Ang^3)
      XXXX  -10313.8985   XXXY    -161.4049   XXYY   -2604.4030
      XYYY     131.7890   YYYY   -5823.4559   XXXZ     -86.1670
      XXYZ     -79.3009   XYYZ       5.6295   YYYZ      63.1986
      XXZZ   -1776.2598   XYZZ     -37.2936   YYZZ   -1165.9279
      XZZZ     -39.5368   YZZZ      11.6478   ZZZZ   -1039.8862
 -----------------------------------------------------------------
Archival summary:
1\1\nia1977.scinet.local\SP\ProcedureUnspecified\6-31G*\5212316\rhickman\MonFeb715:15:512022MonFeb715:15:512022\0\\#,ProcedureUnspecified,6-31G*,\\0,1\N\C,1,1.39267\C,2,1.3952,1,120.641\H,3,1.07832,2,120.015,1,0.239395,0\C,3,1.38247,2,119.525,1,178.517,0\C,5,1.39055,3,121.418,2,-0.269979,0\H,6,1.07861,5,120.072,3,-179.493,0\C,6,1.38396,5,118.83,3,0.548518,0\H,8,1.07899,6,119.843,5,179.608,0\C,8,1.38126,6,120.522,5,-0.18101,0\H,10,1.08006,8,119.923,6,179.791,0\C,1,1.39845,2,120.802,3,33.7481,0\C,12,1.39486,1,120.437,2,-143.014,0\H,13,1.07942,12,119.467,1,1.42896,0\C,13,1.37703,12,120.236,1,-179.453,0\H,15,1.07995,13,119.298,12,-179.45,0\C,12,1.39533,1,120.704,2,37.6055,0\H,17,1.07985,12,119.529,1,-0.041937,0\C,17,1.3781,12,120.699,1,179.558,0\H,19,1.07724,17,118.781,12,-179.882,0\C,19,1.39732,17,120.803,12,-0.219496,0\C,1,1.39944,2,119.659,3,-144.121,0\C,22,1.39463,1,119.946,2,-138.384,0\H,23,1.07985,22,119.001,1,-2.27686,0\C,23,1.38076,22,120.56,1,177.178,0\H,25,1.07953,23,119.557,22,-179.999,0\C,25,1.3869,23,120.379,22,-1.03721,0\H,27,1.07876,25,120.257,23,-179.034,0\C,27,1.38238,25,119.664,23,1.28647,0\H,29,1.07904,27,120.542,25,178.879,0\C,29,1.39006,27,120.598,25,0.206048,0\C,21,1.45167,19,123.678,17,-179.943,0\H,32,1.08056,21,116.464,19,-177.69,0\C,32,1.32556,21,128.539,19,2.42368,0\F,34,1.32798,32,128.09,21,0.300461,0\F,34,1.33232,32,123.051,21,179.893,0\C,31,1.48764,29,119.421,27,174.284,0\O,37,1.20554,31,124.729,29,-132.532,0\O,37,1.33829,31,111.696,29,45.7626,0\C,39,1.4207,37,115.781,31,-179.593,0\H,40,1.08666,39,106.241,37,178.246,0\H,40,1.09164,39,110.365,37,58.125,0\H,40,1.09231,39,110.113,37,-61.9078,0\C,5,1.50157,3,120.473,2,-178.544,0\F,44,1.33794,5,113.8,3,-8.00236,0\F,44,1.34756,5,111.973,3,112.831,0\F,44,1.34756,5,112.046,3,-128.639,0\\\@

 Total job time:  205.64s(wall), 205.12s(cpu) 
 Mon Feb  7 15:15:51 2022

        *************************************************************
        *                                                           *
        *  Thank you very much for using Q-Chem.  Have a nice day.  *
        *                                                           *
        *************************************************************


