21
 energy: -34.386188346260 gnorm: 0.000032566387 xtb: 6.4.1 (23d549d)
C         3.67154309950000   -0.94376816990000   -0.38599816500000
C         2.52875152480000   -1.28871753640000    0.19545421390000
C         1.26877763060000   -0.55560071080000    0.13010760650000
C         0.07223724470000   -1.25662874590000    0.14271786870000
C        -1.17498148720000   -0.62999162640000    0.04117198830000
C        -2.38491982610000   -1.43681885050000    0.04514359990000
C        -3.64205933160000   -1.01492689180000   -0.03213460210000
C        -1.10349231300000    0.76180850350000   -0.05537723440000
F        -2.21593680450000    1.50520079340000   -0.17551989900000
N        -0.00212295220000    1.46692222420000   -0.01889495030000
C         1.17580640800000    0.85497391180000    0.07358699700000
N         2.26033390630000    1.67724200250000    0.09592980130000
H         4.54834969440000   -1.56303483760000   -0.29970073470000
H         3.76447469350000   -0.06825114030000   -1.00549497180000
H         2.47540604090000   -2.22168698480000    0.74449134610000
H         0.10306754710000   -2.33550680480000    0.21403211850000
H        -2.19173998950000   -2.50085982490000    0.12207731470000
H        -3.91191874530000    0.02225094290000   -0.11018925170000
H        -4.45766007280000   -1.71816419390000   -0.01916764040000
H         2.04433401220000    2.65111149890000    0.23690651420000
H         3.10707061380000    1.32564441080000    0.51175165840000
