47
 energy: -92.145702398007 gnorm: 0.000182581005 xtb: 6.4.1 (23d549d)
C        -0.43008366440000   -0.99099144390000   -3.22382696190000
O         0.14732914980000   -1.22045897730000   -1.94768606670000
C        -0.38665372430000   -2.22344102480000   -1.23496384380000
C         0.31331154010000   -2.40957552930000    0.06545653060000
C         0.66811271260000   -1.34018546990000    0.89757759880000
N         0.26558571410000   -0.02601207370000    0.61062865480000
C         1.16802053890000    1.01752272380000    0.77966103650000
C         2.52683254550000    0.81249725050000    0.53936634580000
C         3.42448266270000    1.85068914690000    0.72775326100000
C         4.87413916620000    1.58346488840000    0.44128746930000
F         5.30920598840000    0.45220787770000    1.02644038210000
F         5.11024294700000    1.43077405020000   -0.87710572870000
F         5.68935527850000    2.56184614330000    0.85708530650000
C         2.99970681950000    3.10595052620000    1.13973594290000
C         1.64854371810000    3.30634145710000    1.37417893880000
C         0.74190923570000    2.27995528040000    1.20337975790000
C        -1.03741222750000    0.21043421740000    0.16156886580000
C        -2.09398248200000   -0.58110627130000    0.61383285270000
C        -3.37705631580000   -0.37343240780000    0.15590801520000
C        -3.65250177210000    0.63690721460000   -0.76863460660000
C        -4.97762934480000    0.90782363600000   -1.29568701740000
C        -6.12841898070000    0.33826358690000   -0.96610285200000
F        -6.34334731090000   -0.61385932310000   -0.06702933160000
F        -7.29042479050000    0.67621828070000   -1.52333830290000
C        -2.58877789950000    1.42700653360000   -1.21507141420000
C        -1.30469788830000    1.22208747310000   -0.76198770810000
C         1.38828342700000   -1.60284319540000    2.06210448040000
C         1.73898759690000   -2.89604077190000    2.39744147470000
C         1.35240691790000   -3.95700895620000    1.59288208110000
C         0.63721430370000   -3.71021636390000    0.43647675340000
O        -1.28112967910000   -2.92218037290000   -1.63561500940000
H        -1.46613054150000   -0.66337425650000   -3.11377205360000
H        -0.41020448020000   -1.90664770970000   -3.81812354900000
H         0.16927569100000   -0.21547327400000   -3.69322498300000
H         2.87740582690000   -0.15169036760000    0.20412457710000
H         3.71067516430000    3.90425487060000    1.27812372870000
H         1.30285094330000    4.27351409360000    1.70469819260000
H        -0.30553719880000    2.44389164590000    1.40690727210000
H        -1.90423881180000   -1.36558725370000    1.33094454930000
H        -4.16673894280000   -1.00635289720000    0.52415279310000
H        -5.04813843020000    1.67577292750000   -2.05272611880000
H        -2.77496901610000    2.20728914970000   -1.93867630340000
H        -0.49452209240000    1.82910382360000   -1.13696582570000
H         1.66175323130000   -0.78050315530000    2.70667664460000
H         2.29960882010000   -3.07753017240000    3.30172141700000
H         1.60852973460000   -4.96865609050000    1.86560303020000
H         0.33010522590000   -4.51891603720000   -0.20905396700000
