
Running Job 1 of 1 tidas/B054/conf-1/spe_input.inp
qchem tidas/B054/conf-1/spe_input.inp_239596.0 /home/a/aspuru/seifridm/acdc_laser/descriptor_computation/qchem239596/ 0
/gpfs/fs1/scinet/niagara/software/commercial/qc54/exe/qcprog.exe_s tidas/B054/conf-1/spe_input.inp_239596.0 /home/a/aspuru/seifridm/acdc_laser/descriptor_computation/qchem239596/
                  Welcome to Q-Chem
     A Quantum Leap Into The Future Of Chemistry


 Q-Chem 5.4, Q-Chem, Inc., Pleasanton, CA (2021)

 License issued to: SRG Alan Aspuru-Guzik, University of Toronto

 E. Epifanovsky,  A. T. B. Gilbert,  Xintian Feng,  Joonho Lee,  Yuezhi Mao,  
 N. Mardirossian,  P. Pokhilko,  A. White,  M. Wormit,  M. P. Coons,  
 A. L. Dempwolff,  Zhengting Gan,  D. Hait,  P. R. Horn,  L. D. Jacobson,  
 I. Kaliman,  J. Kussmann,  A. W. Lange,  Ka Un Lao,  D. S. Levine,  Jie Liu,  
 S. C. McKenzie,  A. F. Morrison,  K. Nanda,  F. Plasser,  D. R. Rehn,  
 M. L. Vidal,  Zhi-Qiang You,  Ying Zhu,  B. Alam,  B. Albrecht,  
 A. Aldossary,  E. Alguire,  J. H. Andersen,  D. Barton,  K. Begam,  A. Behn,  
 Y. A. Bernard,  E. J. Berquist,  H. Burton,  A. Carreras,  K. Carter-Fenk,  
 Romit Chakraborty,  A. D. Chien,  K. D. Closser,  V. Cofer-Shabica,  
 S. Dasgupta,  Jia Deng,  M. de Wergifosse,  M. Diedenhofen,  Hainam Do,  
 S. Ehlert,  Po-Tung Fang,  S. Fatehi,  Qingguo Feng,  T. Friedhoff,  
 J. Gayvert,  Qinghui Ge,  G. Gidofalvi,  M. Goldey,  J. Gomes,  
 C. Gonzalez-Espinoza,  S. Gulania,  A. Gunina,  M. W. D. Hanson-Heine,  
 P. H. P. Harbach,  A. W. Hauser,  M. F. Herbst,  M. Hernandez Vera,  
 M. Hodecker,  Z. C. Holden,  S. Houck,  Xunkun Huang,  Kerwin Hui,  
 B. C. Huynh,  M. Ivanov,  Hyunjun Ji,  Hanjie Jiang,  B. Kaduk,  S. Kaehler,  
 K. Khistyaev,  Jaehoon Kim,  P. Klunzinger,  Z. Koczor-Benda,  
 Joong Hoon Koh,  D. Kosenkov,  L. Koulias,  T. Kowalczyk,  C. M. Krauter,  
 K. Kue,  A. Kunitsa,  T. Kus,  A. Landau,  K. V. Lawler,  D. Lefrancois,  
 S. Lehtola,  Rain Li,  Yi-Pei Li,  Jiashu Liang,  M. Liebenthal,  
 Hung-Hsuan Lin,  You-Sheng Lin,  Fenglai Liu,  Kuan-Yu Liu,  
 M. Loipersberger,  A. Luenser,  A. Manjanath,  P. Manohar,  E. Mansoor,  
 S. F. Manzer,  Shan-Ping Mao,  A. V. Marenich,  T. Markovich,  S. Mason,  
 S. A. Maurer,  P. F. McLaughlin,  M. F. S. J. Menger,  J.-M. Mewes,  
 S. A. Mewes,  P. Morgante,  J. W. Mullinax,  K. J. Oosterbaan,  G. Paran,  
 Alexander C. Paul,  Suranjan K. Paul,  F. Pavosevic,  Zheng Pei,  S. Prager,  
 E. I. Proynov,  E. Ramos,  B. Rana,  A. E. Rask,  A. Rettig,  R. M. Richard,  
 F. Rob,  E. Rossomme,  T. Scheele,  M. Scheurer,  M. Schneider,  
 N. Sergueev,  S. M. Sharada,  W. Skomorowski,  D. W. Small,  C. J. Stein,  
 Yu-Chuan Su,  E. J. Sundstrom,  Zhen Tao,  J. Thirman,  T. Tsuchimochi,  
 N. M. Tubman,  S. P. Veccham,  O. Vydrov,  J. Wenzel,  J. Witte,  A. Yamada,  
 Kun Yao,  S. Yeganeh,  S. R. Yost,  A. Zech,  Igor Ying Zhang,  Xing Zhang,  
 Yu Zhang,  D. Zuev,  A. Aspuru-Guzik,  A. T. Bell,  N. A. Besley,  
 K. B. Bravaya,  B. R. Brooks,  D. Casanova,  Jeng-Da Chai,  S. Coriani,  
 C. J. Cramer,  A. E. DePrince, III,  R. A. DiStasio Jr.,  A. Dreuw,  
 B. D. Dunietz,  T. R. Furlani,  W. A. Goddard III,  S. Grimme,  
 S. Hammes-Schiffer,  T. Head-Gordon,  W. J. Hehre,  Chao-Ping Hsu,  
 T.-C. Jagau,  Yousung Jung,  A. Klamt,  Jing Kong,  D. S. Lambrecht,  
 WanZhen Liang,  N. J. Mayhall,  C. W. McCurdy,  J. B. Neaton,  T. Neudecker,  
 C. Ochsenfeld,  J. A. Parkhill,  R. Peverati,  V. A. Rassolov,  Yihan Shao,  
 L. V. Slipchenko,  R. P. Steele,  J. E. Subotnik,  A. J. W. Thom,  
 A. Tkatchenko,  D. G. Truhlar,  T. Van Voorhis,  T. A. Wesolowski,  
 K. B. Whaley,  H. L. Woodcock III,  P. M. Zimmerman,  S. Faraji,  
 P. M. W. Gill,  M. Head-Gordon,  J. M. Herbert,  A. I. Krylov

 Additional authors since Version 5.4.0: 
 Chandrima Chakravarty,  L. Cunha,  R. Kang,  Yongbin Kim,  S. Kotaru,  
 Shaozhi Li,  Xiangyuan Li,  F. Matz,  A. Molle,  V. Parravicini,  
 Haisheng Ren,  Hengyuan Shen,  Yingli Su,  Hung-Yi Tsai,  C. Utku,  
 Fang Wang,  Jeff Yang,  F. Zeller

 Contributors to earlier versions of Q-Chem not listed above: 
 R. D. Adamson,  B. Austin,  R. Baer,  J. Baker,  G. J. O. Beran,  
 K. Brandhorst,  S. T. Brown,  E. F. C. Byrd,  Arup K. Chakraborty,  
 G. K. L. Chan,  Chun-Min Chang,  Yunqing Chen,  C.-L. Cheng,  
 Siu Hung Chien,  D. M. Chipman,  D. L. Crittenden,  H. Dachsel,  
 R. J. Doerksen,  A. D. Dutoi,  R. G. Edgar,  J. Fosso-Tande,  
 L. Fusti-Molnar,  D. Ghosh,  A. Ghysels,  A. Golubeva-Zadorozhnaya,  
 J. Gonthier,  M. S. Gordon,  S. R. Gwaltney,  G. Hawkins,  J. E. Herr,  
 A. Heyden,  S. Hirata,  E. G. Hohenstein,  G. Kedziora,  F. J. Keil,  
 C. Kelley,  Jihan Kim,  R. A. King,  R. Z. Khaliullin,  P. P. Korambath,  
 W. Kurlancheek,  A. Laurent,  A. M. Lee,  M. S. Lee,  S. V. Levchenko,  
 Ching Yeh Lin,  D. Liotard,  E. Livshits,  R. C. Lochan,  I. Lotan,  
 L. A. Martinez-Martinez,  P. E. Maslen,  N. Nair,  D. P. O'Neill,  
 D. Neuhauser,  E. Neuscamman,  C. M. Oana,  R. Olivares-Amaya,  R. Olson,  
 T. M. Perrine,  B. Peters,  P. A. Pieniazek,  A. Prociuk,  Y. M. Rhee,  
 J. Ritchie,  M. A. Rohrdanz,  E. Rosta,  N. J. Russ,  H. F. Schaefer III,  
 M. W. Schmidt,  N. E. Schultz,  S. Sharma,  N. Shenvi,  C. D. Sherrill,  
 A. C. Simmonett,  A. Sodt,  T. Stein,  D. Stuck,  K. S. Thanthiriwatte,  
 V. Vanovschi,  L. Vogt,  Tao Wang,  A. Warshel,  M. A. Watson,  
 C. F. Williams,  Q. Wu,  X. Xu,  Jun Yang,  W. Zhang,  Yan Zhao

   Please cite Q-Chem as follows:
  "Software for the frontiers of quantum chemistry:
   An overview of developments in the Q-Chem 5 package"
   J. Chem. Phys. 155, 084801 (2021)
   https://doi.org/10.1063/5.0055522 (open access)

 Q-Chem 5.4.2 for Intel X86 EM64T Linux

 Parts of Q-Chem use Armadillo 9.900.5 (Nocturnal Misbehaviour).
 http://arma.sourceforge.net/

 Q-Chem begins on Fri Aug 12 12:43:23 2022  

 Host: 
0

     Scratch files written to /home/a/aspuru/seifridm/acdc_laser/descriptor_computation/qchem239596//
 Dec1321 |scratch|qcdevops|jenkins|workspace|build_RNUM 6959   
 Processing $rem in /gpfs/fs1/scinet/niagara/software/commercial/qc54/config/preferences:
 Processing $rem in /home/a/aspuru/seifridm/.qchemrc:

 Checking the input file for inconsistencies... 	...done.

--------------------------------------------------------------
User input:
--------------------------------------------------------------
$molecule
0 1
C           -2.75438664430000        3.41860274870000        0.03795974350000
C           -1.56772281720000        2.82698562530000       -0.02280331600000
C           -1.30498674290000        1.39182391890000       -0.01449718580000
C           -2.32323823770000        0.43685230200000       -0.00761942550000
C           -2.04563456900000       -0.91936941380000        0.00079507790000
C           -3.12488090130000       -1.95657110150000        0.00981887330000
C           -0.71182354930000       -1.30676553780000        0.00252412160000
F           -0.43270159240000       -2.63096112950000        0.01065034230000
C            0.34549333100000       -0.39452609420000       -0.00579967450000
C            1.70515393930000       -0.91011446850000       -0.00524267450000
C            2.83883846220000       -0.22596831990000       -0.00169219590000
F            2.99897810570000        1.09233537000000        0.00184427070000
F            4.03674742620000       -0.80426378660000       -0.00108673630000
C            0.01880008060000        0.95999694310000       -0.01556806560000
H           -2.84286647270000        4.49114611160000        0.02719011220000
H           -3.67981396980000        2.87273712920000        0.10273541430000
H           -0.67862489070000        3.44226490940000       -0.08010188330000
H           -3.35480312810000        0.75120758560000       -0.01224255470000
H           -4.10635639040000       -1.49378407210000       -0.03682024900000
H           -3.05965464250000       -2.55824083460000        0.91566128990000
H           -3.00788683600000       -2.62971103460000       -0.83829119300000
H            1.81186712910000       -1.98535969330000       -0.00667106690000
H            0.80516175640000        1.69676550970000       -0.02283537580000
$end

$rem
BASIS = 6-31G*
GUI = 2
METHOD = B3LYP
PRINT_ORBITALS false
MOLDEN_FORMAT false
$end
--------------------------------------------------------------
 ----------------------------------------------------------------
             Standard Nuclear Orientation (Angstroms)
    I     Atom           X                Y                Z
 ----------------------------------------------------------------
    1      C       3.3385167039     2.6931708428    -0.0352524655
    2      C       2.0479352866     2.3885323710     0.0236458843
    3      C       1.4641239834     1.0514110640     0.0159431094
    4      C       2.2371432456    -0.1110339003     0.0118049451
    5      C       1.6569020773    -1.3679068817     0.0039031534
    6      C       2.4705090518    -2.6243494349    -0.0021974369
    7      C       0.2698577437    -1.4401721481    -0.0001379521
    8      F      -0.3045415605    -2.6655194928    -0.0077793909
    9      C      -0.5509627325    -0.3103968973     0.0054029826
   10      C      -1.9924761638    -0.5015505730     0.0025831430
   11      C      -2.9397588537     0.4236115237    -0.0037221083
   12      F      -2.7943179175     1.7436134083    -0.0085995749
   13      F      -4.2381364996     0.1344383477    -0.0062245584
   14      C       0.0766777085     0.9336033255     0.0147561849
   15      H       3.6697946648     3.7171076988    -0.0251451505
   16      H       4.1147819907     1.9501484523    -0.0977890833
   17      H       1.3229168869     3.1908176879     0.0787225264
   18      H       3.3132431644    -0.0407861354     0.0182047193
   19      H       3.5317012159    -2.3980996844     0.0460044223
   20      H       2.2710483975    -3.1962739494    -0.9076968645
   21      H       2.2012808039    -3.2519030201     0.8462059541
   22      H      -2.3421434272    -1.5239353401     0.0046401973
   23      H      -0.5204682035     1.8306181720     0.0199083564
 ----------------------------------------------------------------
 Molecular Point Group                 C1    NOp =  1
 Largest Abelian Subgroup              C1    NOp =  1
 Nuclear Repulsion Energy =         846.24120228 hartrees
 There are       51 alpha and       51 beta electrons
 Requested basis set is 6-31G(d)
 There are 74 shells and 228 basis functions

 Total QAlloc Memory Limit   8000 MB
 Mega-Array Size       188 MB
 MEM_STATIC part       192 MB
 A cutoff of  1.0D-08 yielded   1782 shell pairs
 There are     18096 function pairs
 Smallest overlap matrix eigenvalue = 3.22E-04

 Scale SEOQF with 1.000000e-01/1.000000e-01/1.000000e+00

 Standard Electronic Orientation quadrupole field applied
 Nucleus-field energy     =     0.0000000408 hartrees
 Guess from superposition of atomic densities
 Warning:  Energy on first SCF cycle will be non-variational
 SAD guess density has 102.000000 electrons

 -----------------------------------------------------------------------
  General SCF calculation program by
  Eric Jon Sundstrom, Paul Horn, Yuezhi Mao, Dmitri Zuev, Alec White,
  David Stuck, Shaama M.S., Shane Yost, Joonho Lee, David Small,
  Daniel Levine, Susi Lehtola, Hugh Burton, Evgeny Epifanovsky,
  Bang C. Huynh
 -----------------------------------------------------------------------
 Exchange:     0.2000 Hartree-Fock + 0.0800 Slater + 0.7200 B88
 Correlation:  0.1900 VWN1RPA + 0.8100 LYP
 Using SG-1 standard quadrature grid
 A restricted SCF calculation will be
 performed using DIIS
 SCF converges when DIIS error is below 1.0e-05
 ---------------------------------------
  Cycle       Energy         DIIS error
 ---------------------------------------
    1    -727.1200058550      5.21e-02  
    2    -723.8377023462      5.90e-03  
    3    -723.6621599580      7.79e-03  
    4    -724.0561978236      1.35e-03  
    5    -724.0677676345      3.97e-04  
    6    -724.0685426854      1.86e-04  
    7    -724.0687587321      4.86e-05  
    8    -724.0687730166      1.87e-05  
    9    -724.0687757955      4.67e-06  Convergence criterion met
 ---------------------------------------
 SCF time:   CPU 53.00s  wall 60.00s 
 SCF   energy in the final basis set =     -724.0687757955
 Total energy in the final basis set =     -724.0687757955
 
 --------------------------------------------------------------
 
                    Orbital Energies (a.u.)
 --------------------------------------------------------------
 
 Alpha MOs
 -- Occupied --
-24.7466 -24.7362 -24.7140 -10.3593 -10.2702 -10.2130 -10.2050 -10.2044
-10.1981 -10.1928 -10.1926 -10.1922 -10.1878 -10.1811  -1.2880  -1.2269
 -1.2242  -0.8790  -0.8199  -0.8016  -0.7621  -0.7289  -0.6983  -0.6540
 -0.6273  -0.6110  -0.5789  -0.5616  -0.5400  -0.5214  -0.5159  -0.5097
 -0.4747  -0.4707  -0.4452  -0.4430  -0.4394  -0.4372  -0.4288  -0.4199
 -0.4079  -0.4066  -0.3891  -0.3833  -0.3745  -0.3533  -0.3419  -0.3184
 -0.2793  -0.2338  -0.2164
 -- Virtual --
 -0.0370  -0.0218   0.0379   0.0878   0.0986   0.1057   0.1117   0.1181
  0.1402   0.1451   0.1574   0.1638   0.1891   0.1942   0.2051   0.2123
  0.2294   0.2636   0.2766   0.3012   0.3421   0.3511   0.3627   0.4091
  0.4137   0.4389   0.4669   0.4823   0.4900   0.5120   0.5156   0.5378
  0.5413   0.5444   0.5596   0.5599   0.5714   0.5823   0.5952   0.5960
  0.6120   0.6256   0.6269   0.6322   0.6644   0.6761   0.6880   0.7008
  0.7554   0.7569   0.7644   0.7764   0.8134   0.8140   0.8313   0.8427
  0.8641   0.8773   0.8800   0.8852   0.9138   0.9258   0.9485   0.9605
  0.9790   0.9921   1.0039   1.0539   1.0663   1.1132   1.1194   1.1359
  1.1563   1.1647   1.2076   1.2115   1.2216   1.2258   1.2484   1.2621
  1.2644   1.2832   1.3224   1.3442   1.3502   1.3674   1.4012   1.4042
  1.4321   1.4392   1.4550   1.4690   1.4743   1.5050   1.5142   1.5259
  1.5504   1.5858   1.6519   1.6748   1.7087   1.7671   1.7757   1.7783
  1.7923   1.8027   1.8055   1.8274   1.8331   1.8356   1.8553   1.8668
  1.8727   1.9013   1.9380   1.9446   1.9719   1.9799   1.9920   2.0029
  2.0163   2.0358   2.0477   2.0751   2.0951   2.1330   2.1492   2.1801
  2.1975   2.2099   2.2281   2.2416   2.2565   2.2964   2.3052   2.3134
  2.3587   2.3677   2.3726   2.4114   2.4340   2.5006   2.5158   2.5370
  2.5683   2.5785   2.6451   2.6539   2.6757   2.7040   2.7449   2.7801
  2.8347   2.8721   2.9205   2.9536   3.0300   3.0784   3.0972   3.1561
  3.2047   3.3475   3.4793   4.0670   4.0905   4.1031   4.1297   4.1468
  4.2267   4.2510   4.2686   4.4510   4.5061   4.7365   4.7887   5.2829
  5.6458
 --------------------------------------------------------------
 
          Ground-State Mulliken Net Atomic Charges

     Atom                 Charge (a.u.)
  ----------------------------------------
      1 C                    -0.356061
      2 C                    -0.113437
      3 C                     0.199596
      4 C                    -0.249110
      5 C                     0.111821
      6 C                    -0.522848
      7 C                     0.241879
      8 F                    -0.289368
      9 C                     0.133275
     10 C                    -0.298441
     11 C                     0.550683
     12 F                    -0.234444
     13 F                    -0.245768
     14 C                    -0.289538
     15 H                     0.145289
     16 H                     0.142094
     17 H                     0.129515
     18 H                     0.125913
     19 H                     0.157108
     20 H                     0.172317
     21 H                     0.171948
     22 H                     0.174839
     23 H                     0.142735
  ----------------------------------------
  Sum of atomic charges =     0.000000

 -----------------------------------------------------------------
                    Cartesian Multipole Moments
 -----------------------------------------------------------------
    Charge (ESU x 10^10)
                 0.0000
    Dipole Moment (Debye)
         X       1.4155      Y      -0.1048      Z       0.0058
       Tot       1.4194
    Quadrupole Moments (Debye-Ang)
        XX     -75.3980     XY      -0.7304     YY     -75.5147
        XZ      -0.1458     YZ       0.0928     ZZ     -80.4121
    Octopole Moments (Debye-Ang^2)
       XXX     -17.5534    XXY      -8.8622    XYY      -9.1825
       YYY       5.1567    XXZ      -0.6876    XYZ      -0.0754
       YYZ       0.3898    XZZ     -25.6677    YZZ      -7.1268
       ZZZ      -0.3315
    Hexadecapole Moments (Debye-Ang^3)
      XXXX   -2474.3071   XXXY     -16.1999   XXYY    -624.3793
      XYYY     -20.9626   YYYY   -1386.3847   XXXZ      -2.6812
      XXYZ      -1.0939   XYYZ      -0.0972   YYYZ       1.2225
      XXZZ    -442.0475   XYZZ     -28.0045   YYZZ    -258.1957
      XZZZ       0.2743   YZZZ       0.4867   ZZZZ     -82.1667
 -----------------------------------------------------------------
 Total job time:  62.13s(wall), 53.40s(cpu) 
 Fri Aug 12 12:44:25 2022

        *************************************************************
        *                                                           *
        *  Thank you very much for using Q-Chem.  Have a nice day.  *
        *                                                           *
        *************************************************************


