33
 energy: -42.366513713628 gnorm: 0.000172119435 xtb: 6.4.1 (23d549d)
C        -3.82185708010000    2.26059078850000   -0.41379697040000
C        -2.53639106570000    2.28511992170000   -0.07196155830000
C        -1.69972219310000    1.12735585490000    0.07756373120000
C        -0.37016094380000    1.11351934030000    0.41582996650000
C         0.20018837000000   -0.17069374760000    0.48758618880000
C         1.63654753850000   -0.49081165350000    0.81288322670000
C         2.35811540610000   -1.11738783770000   -0.39423402480000
C         2.69110229860000   -0.07834060910000   -1.45755837200000
C         3.60908244110000    0.98712604960000   -0.87153424390000
C         2.89927604920000    1.69022753840000    0.27870271400000
C         2.45438151840000    0.69270869220000    1.34845388780000
C        -0.72997203590000   -1.15869029980000    0.22099583190000
C        -0.55734449290000   -2.58559035370000    0.27154268610000
C        -1.44478016770000   -3.47531969200000   -0.16666281900000
S        -2.28934549650000   -0.48594736850000   -0.15933248880000
H        -4.39990169030000    3.16242377870000   -0.50948534570000
H        -4.33189763840000    1.33143033830000   -0.60796773010000
H        -2.03905529430000    3.22834891180000    0.11883521430000
H         0.15857138660000    2.02460041390000    0.62577979300000
H         1.61255237550000   -1.24708728940000    1.61001610530000
H         1.73852315780000   -1.90234102770000   -0.83024994860000
H         3.28706101980000   -1.57582018710000   -0.04493110020000
H         1.76974622050000    0.38692127240000   -1.81545783170000
H         3.17360579940000   -0.56687552960000   -2.30681837370000
H         3.88400221300000    1.71478057490000   -1.63793454800000
H         4.52695327150000    0.51698449790000   -0.51006677560000
H         2.04366126870000    2.22937914370000   -0.12786590660000
H         3.56472875790000    2.42574262680000    0.73756313480000
H         1.88501942740000    1.20793554610000    2.12536181650000
H         3.35180105180000    0.28295333910000    1.82030822780000
H         0.36632726610000   -2.92759590450000    0.72003982940000
H        -2.37147378960000   -3.16877745100000   -0.62273091660000
H        -1.27086893140000   -4.53363231190000   -0.08524221170000
