
Running Job 1 of 1 fragments/B012/conf-1/spe_input.inp
qchem fragments/B012/conf-1/spe_input.inp_27494.0 /gpfs/fs0/scratch/a/aspuru/rhickman/descriptor_computation/qchem27494/ 0
/scinet/niagara/software/commercial/qc52/exe/qcprog.exe_s fragments/B012/conf-1/spe_input.inp_27494.0 /gpfs/fs0/scratch/a/aspuru/rhickman/descriptor_computation/qchem27494/
                  Welcome to Q-Chem
     A Quantum Leap Into The Future Of Chemistry


 Q-Chem 5.2, Q-Chem, Inc., Pleasanton, CA (2019)

 License issued to: SRG Alan Aspuru-Guzik, University of Toronto

 Yihan Shao,  Zhengting Gan,  E. Epifanovsky,  A. T. B. Gilbert,  M. Wormit,  
 J. Kussmann,  A. W. Lange,  A. Behn,  Jia Deng,  Xintian Feng,  D. Ghosh,  
 M. Goldey,  P. R. Horn,  L. D. Jacobson,  I. Kaliman,  T. Kus,  A. Landau,  
 Jie Liu,  E. I. Proynov,  R. M. Richard,  R. P. Steele,  E. J. Sundstrom,  
 H. L. Woodcock III,  P. M. Zimmerman,  D. Zuev,  B. Albrecht,  E. Alguire,  
 S. A. Baeppler,  D. Barton,  Z. Benda,  Y. A. Bernard,  E. J. Berquist,  
 K. B. Bravaya,  H. Burton,  D. Casanova,  Chun-Min Chang,  Yunqing Chen,  
 A. Chien,  K. D. Closser,  M. P. Coons,  S. Coriani,  S. Dasgupta,  
 A. L. Dempwolff,  M. Diedenhofen,  Hainam Do,  R. G. Edgar,  Po-Tung Fang,  
 S. Faraji,  S. Fatehi,  Qingguo Feng,  K. D. Fenk,  J. Fosso-Tande,  
 J. Gayvert,  Qinghui Ge,  A. Ghysels,  G. Gidofalvi,  J. Gomes,  
 J. Gonthier,  A. Gunina,  D. Hait,  M. W. D. Hanson-Heine,  
 P. H. P. Harbach,  A. W. Hauser,  M. F. Herbst,  J. E. Herr,  
 E. G. Hohenstein,  Z. C. Holden,  Kerwin Hui,  B. C. Huynh,  T.-C. Jagau,  
 Hyunjun Ji,  B. Kaduk,  K. Khistyaev,  Jaehoon Kim,  P. Klunzinger,  K. Koh,  
 D. Kosenkov,  L. Koulias,  T. Kowalczyk,  C. M. Krauter,  A. Kunitsa,  
 Ka Un Lao,  A. Laurent,  K. V. Lawler,  Joonho Lee,  D. Lefrancois,  
 S. Lehtola,  D. S. Levine,  Yi-Pei Li,  You-Sheng Lin,  Fenglai Liu,  
 E. Livshits,  A. Luenser,  P. Manohar,  E. Mansoor,  S. F. Manzer,  
 Shan-Ping Mao,  Yuezhi Mao,  N. Mardirossian,  A. V. Marenich,  
 T. Markovich,  L. A. Martinez-Martinez,  S. A. Maurer,  N. J. Mayhall,  
 S. C. McKenzie,  J.-M. Mewes,  P. Morgante,  A. F. Morrison,  
 J. W. Mullinax,  K. Nanda,  T. S. Nguyen-Beck,  R. Olivares-Amaya,  
 J. A. Parkhill,  Zheng Pei,  T. M. Perrine,  F. Plasser,  P. Pokhilko,  
 S. Prager,  A. Prociuk,  E. Ramos,  D. R. Rehn,  F. Rob,  M. Scheurer,  
 M. Schneider,  N. Sergueev,  S. M. Sharada,  S. Sharma,  D. W. Small,  
 T. Stauch,  T. Stein,  Yu-Chuan Su,  A. J. W. Thom,  A. Tkatchenko,  
 T. Tsuchimochi,  N. M. Tubman,  L. Vogt,  M. L. Vidal,  O. Vydrov,  
 M. A. Watson,  J. Wenzel,  M. de Wergifosse,  T. A. Wesolowski,  A. White,  
 J. Witte,  A. Yamada,  Jun Yang,  K. Yao,  S. Yeganeh,  S. R. Yost,  
 Zhi-Qiang You,  A. Zech,  Igor Ying Zhang,  Xing Zhang,  Yan Zhao,  
 Ying Zhu,  B. R. Brooks,  G. K. L. Chan,  C. J. Cramer,  M. S. Gordon,  
 W. J. Hehre,  A. Klamt,  M. W. Schmidt,  C. D. Sherrill,  D. G. Truhlar,  
 A. Aspuru-Guzik,  R. Baer,  A. T. Bell,  N. A. Besley,  Jeng-Da Chai,  
 A. E. DePrince, III,  R. A. DiStasio Jr.,  A. Dreuw,  B. D. Dunietz,  
 T. R. Furlani,  Chao-Ping Hsu,  Yousung Jung,  Jing Kong,  D. S. Lambrecht,  
 WanZhen Liang,  C. Ochsenfeld,  V. A. Rassolov,  L. V. Slipchenko,  
 J. E. Subotnik,  T. Van Voorhis,  J. M. Herbert,  A. I. Krylov,  
 P. M. W. Gill,  M. Head-Gordon

 Contributors to earlier versions of Q-Chem not listed above: 
 R. D. Adamson,  B. Austin,  J. Baker,  G. J. O. Beran,  K. Brandhorst,  
 S. T. Brown,  E. F. C. Byrd,  A. K. Chakraborty,  C.-L. Cheng,  
 Siu Hung Chien,  D. M. Chipman,  D. L. Crittenden,  H. Dachsel,  
 R. J. Doerksen,  A. D. Dutoi,  L. Fusti-Molnar,  W. A. Goddard III,  
 A. Golubeva-Zadorozhnaya,  S. R. Gwaltney,  G. Hawkins,  A. Heyden,  
 S. Hirata,  G. Kedziora,  F. J. Keil,  C. Kelley,  Jihan Kim,  R. A. King,  
 R. Z. Khaliullin,  P. P. Korambath,  W. Kurlancheek,  A. M. Lee,  M. S. Lee,  
 S. V. Levchenko,  Ching Yeh Lin,  D. Liotard,  R. C. Lochan,  I. Lotan,  
 P. E. Maslen,  N. Nair,  D. P. O'Neill,  D. Neuhauser,  E. Neuscamman,  
 C. M. Oana,  R. Olson,  B. Peters,  R. Peverati,  P. A. Pieniazek,  
 Y. M. Rhee,  J. Ritchie,  M. A. Rohrdanz,  E. Rosta,  N. J. Russ,  
 H. F. Schaefer III,  N. E. Schultz,  N. Shenvi,  A. C. Simmonett,  A. Sodt,  
 D. Stuck,  K. S. Thanthiriwatte,  V. Vanovschi,  Tao Wang,  A. Warshel,  
 C. F. Williams,  Q. Wu,  X. Xu,  W. Zhang

 Please cite Q-Chem as follows:
 Y. Shao et al., Mol. Phys. 113, 184-215 (2015)
 DOI: 10.1080/00268976.2014.952696

 Q-Chem 5.2.1 for Intel X86 EM64T Linux

 Parts of Q-Chem use Armadillo 8.300.2 (Tropical Shenanigans).
 http://arma.sourceforge.net/

 Q-Chem begins on Mon Feb  7 12:31:19 2022  

Host: 
0

     Scratch files written to /gpfs/fs0/scratch/a/aspuru/rhickman/descriptor_computation/qchem27494//
 Jul1719 |scratch|qcdevops|jenkins|workspace|build_RNUM -1
Processing $rem in /scinet/niagara/software/commercial/qc52/config/preferences:
	 MEM_TOTAL  4000 
NAlpha2: 94
NElect   94
Mult     1

Checking the input file for inconsistencies... 	...done.

--------------------------------------------------------------
User input:
--------------------------------------------------------------
$molecule
0 1
C        -1.83622077810000    3.20675123390000   -0.07744530420000
C        -2.37756290480000    2.00289930610000    0.06186251980000
C        -1.67254052810000    0.72532386970000    0.03865935190000
C        -2.42368530240000   -0.45093256790000    0.01795282460000
C        -1.77159304300000   -1.66714296230000   -0.00858208270000
F        -2.50399756970000   -2.80008285290000   -0.03124817630000
C        -0.39548041120000   -1.76650490340000   -0.01013506440000
C         0.36740218300000   -0.59648816410000    0.01543522080000
C         1.81600046880000   -0.73706279290000    0.01685198670000
C         2.73721238930000    0.21492745050000   -0.00175569450000
F         2.55578350200000    1.52906543590000   -0.02727542190000
F         4.04277879540000   -0.03860022140000   -0.00119447600000
C        -0.28179850680000    0.63533684660000    0.04098557840000
H        -2.44247844480000    4.09564574980000   -0.05069301730000
H        -0.78178246040000    3.36125848440000   -0.22844161870000
H        -3.44900019790000    1.92038124380000    0.19470174030000
H        -3.50225531480000   -0.42354105480000    0.01863234620000
H         0.07068210680000   -2.73871611400000   -0.02940206650000
H         2.20147894910000   -1.74607913630000    0.03010153400000
H         0.29668764560000    1.54168061880000    0.07260549920000
$end

$rem
BASIS = 6-31G*
GUI = 2
METHOD = B3LYP
PRINT_ORBITALS false
MOLDEN_FORMAT false
--------------------------------------------------------------
 ----------------------------------------------------------------
             Standard Nuclear Orientation (Angstroms)
    I     Atom           X                Y                Z
 ----------------------------------------------------------------
    1      C      -1.3930824384    -3.3535754854     0.0753443914
    2      C      -2.0713117388    -2.2208517594    -0.0612550547
    3      C      -1.5200066444    -0.8698259903    -0.0370476490
    4      C      -2.4031284464     0.2108042494    -0.0133705026
    5      C      -1.8972327339     1.4947078227     0.0141482553
    6      F      -2.7566888283     2.5344990761     0.0396886018
    7      C      -0.5420877119     1.7538276059     0.0138487153
    8      C       0.3519564316     0.6807698548    -0.0146993924
    9      C       1.7742830516     0.9892763539    -0.0180089590
   10      C       2.8002302347     0.1511549275    -0.0022633579
   11      F       2.7732897815    -1.1752082351     0.0214287311
   12      F       4.0673332820     0.5551671041    -0.0043285138
   13      C      -0.1492453871    -0.6183061019    -0.0412626932
   14      H      -1.8916167624    -4.3070516154     0.0480625111
   15      H      -0.3275756568    -3.3843075052     0.2245535886
   16      H      -3.1452789483    -2.2636254129    -0.1923969998
   17      H      -3.4711495541     0.0578525758    -0.0125176591
   18      H      -0.1924187498     2.7737293600     0.0339827086
   19      H       2.0394741316     2.0363713332    -0.0302149357
   20      H       0.5309097224    -1.4509791038    -0.0751711045
 ----------------------------------------------------------------
 Molecular Point Group                 C1    NOp =  1
 Largest Abelian Subgroup              C1    NOp =  1
 Nuclear Repulsion Energy =         733.45952184 hartrees
 There are       47 alpha and       47 beta electrons
 Requested basis set is 6-31G(d)
 There are 66 shells and 209 basis functions

 Total QAlloc Memory Limit   4000 MB
 Mega-Array Size       188 MB
 MEM_STATIC part       192 MB
 A cutoff of  1.0D-08 yielded   1487 shell pairs
 There are     15682 function pairs
 Smallest overlap matrix eigenvalue = 3.88E-04

 Scale SEOQF with 1.000000e-01/1.000000e-01/1.000000e+00

 Standard Electronic Orientation quadrupole field applied
 Nucleus-field energy     =     0.0000000364 hartrees
 Guess from superposition of atomic densities
 Warning:  Energy on first SCF cycle will be non-variational
 SAD guess density has 94.000000 electrons

 -----------------------------------------------------------------------
  General SCF calculation program by
  Eric Jon Sundstrom, Paul Horn, Yuezhi Mao, Dmitri Zuev, Alec White,
  David Stuck, Shaama M.S., Shane Yost, Joonho Lee, David Small,
  Daniel Levine, Susi Lehtola, Hugh Burton, Evgeny Epifanovsky,
  Bang C. Huynh
 -----------------------------------------------------------------------
 Exchange:     0.2000 Hartree-Fock + 0.0800 Slater + 0.7200 B88
 Correlation:  0.1900 VWN1RPA + 0.8100 LYP
 Using SG-1 standard quadrature grid
 A restricted SCF calculation will be
 performed using DIIS
 SCF converges when DIIS error is below 1.0e-05
 ---------------------------------------
  Cycle       Energy         DIIS error
 ---------------------------------------
    1    -687.6213147700      5.45e-02  
    2    -684.5405481886      6.16e-03  
    3    -684.3518397282      8.46e-03  
    4    -684.7344746463      1.60e-03  
    5    -684.7477935978      4.83e-04  
    6    -684.7487617542      2.29e-04  
    7    -684.7490496795      4.56e-05  
    8    -684.7490586472      2.00e-05  
    9    -684.7490607696      6.34e-06  Convergence criterion met
 ---------------------------------------
 SCF time:   CPU 25.97s  wall 26.00s 
 SCF   energy in the final basis set =     -684.7490607696
 Total energy in the final basis set =     -684.7490607696
 
 --------------------------------------------------------------
 
                    Orbital Energies (a.u.)
 --------------------------------------------------------------
 
 Alpha MOs
 -- Occupied --
-24.7510 -24.7405 -24.7050 -10.3640 -10.2732 -10.2177 -10.2093 -10.2076
-10.1973 -10.1969 -10.1950 -10.1907 -10.1870  -1.2926  -1.2313  -1.2171
 -0.8805  -0.8224  -0.7931  -0.7472  -0.7364  -0.6567  -0.6421  -0.6175
 -0.5857  -0.5680  -0.5443  -0.5257  -0.5138  -0.5022  -0.4839  -0.4701
 -0.4601  -0.4473  -0.4446  -0.4383  -0.4295  -0.4187  -0.3977  -0.3823
 -0.3750  -0.3677  -0.3491  -0.3256  -0.2821  -0.2335  -0.2283
 -- Virtual --
 -0.0402  -0.0302   0.0501   0.0749   0.0770   0.1070   0.1156   0.1407
  0.1472   0.1634   0.1761   0.1821   0.1839   0.2029   0.2329   0.2635
  0.2979   0.3179   0.3475   0.3499   0.3924   0.4209   0.4343   0.4777
  0.4882   0.4951   0.5145   0.5178   0.5379   0.5437   0.5471   0.5564
  0.5710   0.5783   0.5827   0.6054   0.6118   0.6176   0.6236   0.6287
  0.6462   0.6824   0.6978   0.7202   0.7388   0.7678   0.7831   0.8122
  0.8271   0.8334   0.8391   0.8744   0.8798   0.8906   0.9226   0.9351
  0.9513   0.9771   1.0072   1.0300   1.0613   1.0815   1.0996   1.1290
  1.1526   1.1637   1.1940   1.2012   1.2120   1.2240   1.2263   1.2424
  1.2472   1.2704   1.3149   1.3342   1.3645   1.3969   1.4085   1.4265
  1.4334   1.4541   1.4553   1.4621   1.4754   1.4858   1.5096   1.5503
  1.5975   1.6503   1.6716   1.7021   1.7618   1.7664   1.7766   1.8058
  1.8096   1.8279   1.8311   1.8344   1.8577   1.8856   1.8909   1.9343
  1.9446   1.9473   1.9623   1.9781   1.9799   1.9834   2.0157   2.0288
  2.0326   2.0838   2.1191   2.1489   2.1505   2.2002   2.2134   2.2317
  2.2385   2.2809   2.3115   2.3185   2.3363   2.3749   2.4170   2.4785
  2.5144   2.5191   2.5477   2.5610   2.6063   2.6328   2.6372   2.6786
  2.6983   2.7427   2.8050   2.8512   2.8871   2.9212   3.0359   3.0549
  3.1145   3.1474   3.1851   3.3281   3.4715   4.0694   4.0838   4.0905
  4.1209   4.1492   4.2347   4.2588   4.3712   4.4823   4.7078   4.8002
  5.2413   5.4531
 --------------------------------------------------------------
 
          Ground-State Mulliken Net Atomic Charges

     Atom                 Charge (a.u.)
  ----------------------------------------
      1 C                    -0.348268
      2 C                    -0.115078
      3 C                     0.182284
      4 C                    -0.274824
      5 C                     0.390322
      6 F                    -0.299322
      7 C                    -0.273047
      8 C                     0.202235
      9 C                    -0.300131
     10 C                     0.550717
     11 F                    -0.231353
     12 F                    -0.244997
     13 C                    -0.258094
     14 H                     0.148536
     15 H                     0.150119
     16 H                     0.132103
     17 H                     0.143440
     18 H                     0.143254
     19 H                     0.163651
     20 H                     0.138453
  ----------------------------------------
  Sum of atomic charges =     0.000000

 -----------------------------------------------------------------
                    Cartesian Multipole Moments
 -----------------------------------------------------------------
    Charge (ESU x 10^10)
                 0.0000
    Dipole Moment (Debye)
         X       0.0898      Y      -0.5526      Z      -0.0307
       Tot       0.5607
    Quadrupole Moments (Debye-Ang)
        XX     -72.4927     XY       5.6231     YY     -67.9552
        XZ       0.3560     YZ      -0.0745     ZZ     -74.2196
    Octopole Moments (Debye-Ang^2)
       XXX       6.9937    XXY      -9.9343    XYY      19.0198
       YYY       1.8740    XXZ      -1.2486    XYZ      -0.6632
       YYZ       0.6527    XZZ      15.6071    YZZ       7.4338
       ZZZ       0.5938
    Hexadecapole Moments (Debye-Ang^3)
      XXXX   -2032.8904   XXXY     -16.4419   XXYY    -553.7682
      XYYY      -2.9963   YYYY   -1170.7561   XXXZ       3.6979
      XXYZ       2.6401   XYYZ       1.9331   YYYZ      -2.4086
      XXZZ    -349.5429   XYZZ     -30.5415   YYZZ    -235.2840
      XZZZ      -0.3326   YZZZ       0.8247   ZZZZ     -70.2852
 -----------------------------------------------------------------
Archival summary:
1\1\nia1977.scinet.local\SP\ProcedureUnspecified\6-31G*\3107\rhickman\MonFeb712:31:452022MonFeb712:31:452022\0\\#,ProcedureUnspecified,6-31G*,\\0,1\F\C,1,1.32685\C,2,1.32486,1,128.088\H,3,1.08022,2,115.039,1,179.63,0\F,2,1.32995,1,108.847,3,179.808,0\C,3,1.4554,2,128.51,1,-0.0578117,0\C,6,1.39266,3,123.325,2,-2.36767,0\H,7,1.07569,6,119.677,3,-0.581751,0\C,7,1.39365,6,121.484,3,-179.998,0\C,9,1.39579,7,118.858,6,0.373481,0\H,10,1.07892,9,121.103,7,179.804,0\C,10,1.38025,9,119.249,7,-0.427323,0\F,12,1.34925,10,118.931,9,-179.866,0\C,12,1.3797,10,122.323,9,0.263352,0\H,14,1.07837,12,119.743,10,179.879,0\C,9,1.45938,7,122.587,6,-179.851,0\H,16,1.08279,9,114.41,7,-171.977,0\C,16,1.3273,9,126.534,7,8.88387,0\H,18,1.07629,16,121.113,9,179.701,0\H,18,1.07634,16,122.989,9,0.0910874,0\\\@

 Total job time:  26.22s(wall), 26.12s(cpu) 
 Mon Feb  7 12:31:45 2022

        *************************************************************
        *                                                           *
        *  Thank you very much for using Q-Chem.  Have a nice day.  *
        *                                                           *
        *************************************************************


