
Running Job 1 of 1 fragments/A032/conf-0/spe_input.inp
qchem fragments/A032/conf-0/spe_input.inp_42056.0 /gpfs/fs0/scratch/a/aspuru/rhickman/descriptor_computation/qchem42056/ 0
/scinet/niagara/software/commercial/qc52/exe/qcprog.exe_s fragments/A032/conf-0/spe_input.inp_42056.0 /gpfs/fs0/scratch/a/aspuru/rhickman/descriptor_computation/qchem42056/
                  Welcome to Q-Chem
     A Quantum Leap Into The Future Of Chemistry


 Q-Chem 5.2, Q-Chem, Inc., Pleasanton, CA (2019)

 License issued to: SRG Alan Aspuru-Guzik, University of Toronto

 Yihan Shao,  Zhengting Gan,  E. Epifanovsky,  A. T. B. Gilbert,  M. Wormit,  
 J. Kussmann,  A. W. Lange,  A. Behn,  Jia Deng,  Xintian Feng,  D. Ghosh,  
 M. Goldey,  P. R. Horn,  L. D. Jacobson,  I. Kaliman,  T. Kus,  A. Landau,  
 Jie Liu,  E. I. Proynov,  R. M. Richard,  R. P. Steele,  E. J. Sundstrom,  
 H. L. Woodcock III,  P. M. Zimmerman,  D. Zuev,  B. Albrecht,  E. Alguire,  
 S. A. Baeppler,  D. Barton,  Z. Benda,  Y. A. Bernard,  E. J. Berquist,  
 K. B. Bravaya,  H. Burton,  D. Casanova,  Chun-Min Chang,  Yunqing Chen,  
 A. Chien,  K. D. Closser,  M. P. Coons,  S. Coriani,  S. Dasgupta,  
 A. L. Dempwolff,  M. Diedenhofen,  Hainam Do,  R. G. Edgar,  Po-Tung Fang,  
 S. Faraji,  S. Fatehi,  Qingguo Feng,  K. D. Fenk,  J. Fosso-Tande,  
 J. Gayvert,  Qinghui Ge,  A. Ghysels,  G. Gidofalvi,  J. Gomes,  
 J. Gonthier,  A. Gunina,  D. Hait,  M. W. D. Hanson-Heine,  
 P. H. P. Harbach,  A. W. Hauser,  M. F. Herbst,  J. E. Herr,  
 E. G. Hohenstein,  Z. C. Holden,  Kerwin Hui,  B. C. Huynh,  T.-C. Jagau,  
 Hyunjun Ji,  B. Kaduk,  K. Khistyaev,  Jaehoon Kim,  P. Klunzinger,  K. Koh,  
 D. Kosenkov,  L. Koulias,  T. Kowalczyk,  C. M. Krauter,  A. Kunitsa,  
 Ka Un Lao,  A. Laurent,  K. V. Lawler,  Joonho Lee,  D. Lefrancois,  
 S. Lehtola,  D. S. Levine,  Yi-Pei Li,  You-Sheng Lin,  Fenglai Liu,  
 E. Livshits,  A. Luenser,  P. Manohar,  E. Mansoor,  S. F. Manzer,  
 Shan-Ping Mao,  Yuezhi Mao,  N. Mardirossian,  A. V. Marenich,  
 T. Markovich,  L. A. Martinez-Martinez,  S. A. Maurer,  N. J. Mayhall,  
 S. C. McKenzie,  J.-M. Mewes,  P. Morgante,  A. F. Morrison,  
 J. W. Mullinax,  K. Nanda,  T. S. Nguyen-Beck,  R. Olivares-Amaya,  
 J. A. Parkhill,  Zheng Pei,  T. M. Perrine,  F. Plasser,  P. Pokhilko,  
 S. Prager,  A. Prociuk,  E. Ramos,  D. R. Rehn,  F. Rob,  M. Scheurer,  
 M. Schneider,  N. Sergueev,  S. M. Sharada,  S. Sharma,  D. W. Small,  
 T. Stauch,  T. Stein,  Yu-Chuan Su,  A. J. W. Thom,  A. Tkatchenko,  
 T. Tsuchimochi,  N. M. Tubman,  L. Vogt,  M. L. Vidal,  O. Vydrov,  
 M. A. Watson,  J. Wenzel,  M. de Wergifosse,  T. A. Wesolowski,  A. White,  
 J. Witte,  A. Yamada,  Jun Yang,  K. Yao,  S. Yeganeh,  S. R. Yost,  
 Zhi-Qiang You,  A. Zech,  Igor Ying Zhang,  Xing Zhang,  Yan Zhao,  
 Ying Zhu,  B. R. Brooks,  G. K. L. Chan,  C. J. Cramer,  M. S. Gordon,  
 W. J. Hehre,  A. Klamt,  M. W. Schmidt,  C. D. Sherrill,  D. G. Truhlar,  
 A. Aspuru-Guzik,  R. Baer,  A. T. Bell,  N. A. Besley,  Jeng-Da Chai,  
 A. E. DePrince, III,  R. A. DiStasio Jr.,  A. Dreuw,  B. D. Dunietz,  
 T. R. Furlani,  Chao-Ping Hsu,  Yousung Jung,  Jing Kong,  D. S. Lambrecht,  
 WanZhen Liang,  C. Ochsenfeld,  V. A. Rassolov,  L. V. Slipchenko,  
 J. E. Subotnik,  T. Van Voorhis,  J. M. Herbert,  A. I. Krylov,  
 P. M. W. Gill,  M. Head-Gordon

 Contributors to earlier versions of Q-Chem not listed above: 
 R. D. Adamson,  B. Austin,  J. Baker,  G. J. O. Beran,  K. Brandhorst,  
 S. T. Brown,  E. F. C. Byrd,  A. K. Chakraborty,  C.-L. Cheng,  
 Siu Hung Chien,  D. M. Chipman,  D. L. Crittenden,  H. Dachsel,  
 R. J. Doerksen,  A. D. Dutoi,  L. Fusti-Molnar,  W. A. Goddard III,  
 A. Golubeva-Zadorozhnaya,  S. R. Gwaltney,  G. Hawkins,  A. Heyden,  
 S. Hirata,  G. Kedziora,  F. J. Keil,  C. Kelley,  Jihan Kim,  R. A. King,  
 R. Z. Khaliullin,  P. P. Korambath,  W. Kurlancheek,  A. M. Lee,  M. S. Lee,  
 S. V. Levchenko,  Ching Yeh Lin,  D. Liotard,  R. C. Lochan,  I. Lotan,  
 P. E. Maslen,  N. Nair,  D. P. O'Neill,  D. Neuhauser,  E. Neuscamman,  
 C. M. Oana,  R. Olson,  B. Peters,  R. Peverati,  P. A. Pieniazek,  
 Y. M. Rhee,  J. Ritchie,  M. A. Rohrdanz,  E. Rosta,  N. J. Russ,  
 H. F. Schaefer III,  N. E. Schultz,  N. Shenvi,  A. C. Simmonett,  A. Sodt,  
 D. Stuck,  K. S. Thanthiriwatte,  V. Vanovschi,  Tao Wang,  A. Warshel,  
 C. F. Williams,  Q. Wu,  X. Xu,  W. Zhang

 Please cite Q-Chem as follows:
 Y. Shao et al., Mol. Phys. 113, 184-215 (2015)
 DOI: 10.1080/00268976.2014.952696

 Q-Chem 5.2.1 for Intel X86 EM64T Linux

 Parts of Q-Chem use Armadillo 8.300.2 (Tropical Shenanigans).
 http://arma.sourceforge.net/

 Q-Chem begins on Mon Feb  7 13:23:21 2022  

Host: 
0

     Scratch files written to /gpfs/fs0/scratch/a/aspuru/rhickman/descriptor_computation/qchem42056//
 Jul1719 |scratch|qcdevops|jenkins|workspace|build_RNUM -1
Processing $rem in /scinet/niagara/software/commercial/qc52/config/preferences:
	 MEM_TOTAL  4000 
NAlpha2: 146
NElect   146
Mult     1

Checking the input file for inconsistencies... 	...done.

--------------------------------------------------------------
User input:
--------------------------------------------------------------
$molecule
0 1
C        -5.05160079480000    0.85903162340000   -1.26103527880000
C        -4.80823063360000    0.03381318830000    0.00108600780000
C        -5.68276262080000   -1.21996789100000    0.00245178800000
O        -3.45316053780000   -0.49010741030000    0.00232236970000
C        -2.40704793510000    0.33140611310000    0.00114200120000
N        -1.22868626670000   -0.40148288650000    0.00001510160000
C        -1.12537304450000   -1.78561894360000   -0.00210253820000
C         0.17251941600000   -2.15985072590000   -0.00437395420000
C         0.05651184120000    0.12025911510000   -0.00083083350000
C         0.96129293460000   -0.96419742430000   -0.00342754170000
C         2.33052405960000   -0.73753382160000   -0.00461469100000
C         2.79226028820000    0.57469211980000   -0.00317618960000
C         4.20574099650000    0.91854807280000   -0.00431030700000
C         5.25395978070000    0.10881679570000    0.00126978990000
F         5.26648987570000   -1.22003644340000    0.00910745900000
F         6.51316359080000    0.54839525820000    0.00022442070000
C         1.86961889770000    1.63665295580000   -0.00088636170000
C         0.50658678340000    1.43141875330000    0.00046632810000
O        -2.43025458950000    1.53423190010000    0.00092852430000
C        -5.05274287190000    0.86248702760000    1.26068358760000
H        -4.82123887870000    0.26811795350000   -2.14514640060000
H        -4.42691655830000    1.74796444160000   -1.25950034320000
H        -6.09398008380000    1.16169191500000   -1.30203306270000
H        -5.47650811780000   -1.82049122880000   -0.87966291440000
H        -6.73162254610000   -0.93987133800000    0.00265194110000
H        -5.47579088590000   -1.81897784040000    0.88543171820000
H        -2.01514587280000   -2.38296564800000   -0.00181960410000
H         0.54970381950000   -3.16298586550000   -0.00638738690000
H         3.00897288680000   -1.57414754770000   -0.00702351540000
H         4.44542938310000    1.97217398460000   -0.00957415270000
H         2.24559938620000    2.64879580950000   -0.00008149030000
H        -0.18608924320000    2.25623350050000    0.00231745510000
H        -6.09463642600000    1.16719129400000    1.29828197210000
H        -4.42644365400000    1.75028692640000    1.25841085530000
H        -4.82570615550000    0.27336706170000    2.14684937980000
$end

$rem
BASIS = 6-31G*
GUI = 2
METHOD = B3LYP
PRINT_ORBITALS false
MOLDEN_FORMAT false
--------------------------------------------------------------
 ----------------------------------------------------------------
             Standard Nuclear Orientation (Angstroms)
    I     Atom           X                Y                Z
 ----------------------------------------------------------------
    1      C      -4.8723736392    -0.8634828741     1.2612233416
    2      C      -4.6311091866    -0.0378031058    -0.0010005004
    3      C      -5.5087657419     1.2137926162    -0.0024757636
    4      O      -3.2773501394     0.4894955922    -0.0023466963
    5      C      -2.2291916910    -0.3294059788    -0.0011122127
    6      N      -1.0526616527     0.4064199832    -0.0001122420
    7      C      -0.9528010497     1.7908096542     0.0018447233
    8      C       0.3441540305     2.1682777853     0.0040253951
    9      C       0.2338338407    -0.1121147012     0.0007449380
   10      C       1.1359073136     0.9745954953     0.0031850739
   11      C       2.5056995771     0.7513479274     0.0043469049
   12      C       2.9707073304    -0.5597224050     0.0030398839
   13      C       4.3850413442    -0.9000515948     0.0041603131
   14      C       5.4312369917    -0.0877089632    -0.0015505716
   15      F       5.4404522710     1.2411704981    -0.0095392700
   16      F       6.6915333395    -0.5241451780    -0.0005022986
   17      C       2.0507175176    -1.6239814813     0.0009047448
   18      C       0.6871776895    -1.4221478037    -0.0004204296
   19      O      -2.2493981217    -1.5322858753    -0.0007615880
   20      C      -4.8736003078    -0.8672270671    -1.2604950728
   21      H      -4.6434536433    -0.2718962137     2.1452589247
   22      H      -4.2454741858    -1.7508549819     1.2597658568
   23      H      -5.9139932603    -1.1687375194     1.3022942430
   24      H      -5.3039771268     1.8149285584     0.8795632092
   25      H      -6.5569237815     0.9310808032    -0.0026051140
   26      H      -5.3033213680     1.8132168103    -0.8855312661
   27      H      -1.8440610498     2.3859351559     0.0015272496
   28      H       0.7188352689     3.1723508155     0.0059111208
   29      H       3.1820596620     1.5896515344     0.0066356684
   30      H       4.6273571820    -1.9530757846     0.0095346098
   31      H       2.4292213399    -2.6351834851     0.0002005478
   32      H      -0.0034389594    -2.2486878914    -0.0021523027
   33      H      -5.9147320026    -1.1745333818    -1.2980201258
   34      H      -4.2450885631    -1.7534617991    -1.2581450782
   35      H      -4.6480664645    -0.2776431401    -2.1467360641
 ----------------------------------------------------------------
 Molecular Point Group                 C1    NOp =  1
 Largest Abelian Subgroup              C1    NOp =  1
 Nuclear Repulsion Energy =        1502.61023072 hartrees
 There are       73 alpha and       73 beta electrons
 Requested basis set is 6-31G(d)
 There are 110 shells and 330 basis functions

 Total QAlloc Memory Limit   4000 MB
 Mega-Array Size       188 MB
 MEM_STATIC part       192 MB
 A cutoff of  1.0D-08 yielded   3106 shell pairs
 There are     30129 function pairs
 Smallest overlap matrix eigenvalue = 3.27E-04

 Scale SEOQF with 1.000000e-02/1.000000e-01/1.000000e-01

 Standard Electronic Orientation quadrupole field applied
 Nucleus-field energy     =     0.0000000179 hartrees
 Guess from superposition of atomic densities
 Warning:  Energy on first SCF cycle will be non-variational
 SAD guess density has 146.000000 electrons

 -----------------------------------------------------------------------
  General SCF calculation program by
  Eric Jon Sundstrom, Paul Horn, Yuezhi Mao, Dmitri Zuev, Alec White,
  David Stuck, Shaama M.S., Shane Yost, Joonho Lee, David Small,
  Daniel Levine, Susi Lehtola, Hugh Burton, Evgeny Epifanovsky,
  Bang C. Huynh
 -----------------------------------------------------------------------
 Exchange:     0.2000 Hartree-Fock + 0.0800 Slater + 0.7200 B88
 Correlation:  0.1900 VWN1RPA + 0.8100 LYP
 Using SG-1 standard quadrature grid
 A restricted SCF calculation will be
 performed using DIIS
 SCF converges when DIIS error is below 1.0e-05
 ---------------------------------------
  Cycle       Energy         DIIS error
 ---------------------------------------
    1    -990.2455756867      4.51e-02  
    2    -985.1123576206      5.63e-03  
    3    -984.5812919974      8.81e-03  
    4    -985.4653032019      2.06e-03  
    5    -985.5135917478      5.53e-04  
    6    -985.5165331750      2.32e-04  
    7    -985.5171831970      4.98e-05  
    8    -985.5172113056      1.73e-05  
    9    -985.5172150708      5.64e-06  Convergence criterion met
 ---------------------------------------
 SCF time:   CPU 76.23s  wall 76.00s 
 SCF   energy in the final basis set =     -985.5172150708
 Total energy in the final basis set =     -985.5172150708
 
 --------------------------------------------------------------
 
                    Orbital Energies (a.u.)
 --------------------------------------------------------------
 
 Alpha MOs
 -- Occupied --
-24.7378 -24.7269 -19.2000 -19.1402 -14.3988 -10.3534 -10.3481 -10.2656
-10.2218 -10.2206 -10.1978 -10.1959 -10.1885 -10.1861 -10.1841 -10.1836
-10.1832 -10.1831 -10.1789 -10.1789  -1.2781  -1.2172  -1.1283  -1.0373
 -0.9956  -0.8611  -0.8296  -0.8024  -0.7909  -0.7381  -0.7268  -0.7059
 -0.7020  -0.6737  -0.6373  -0.6178  -0.6117  -0.5880  -0.5636  -0.5510
 -0.5242  -0.5166  -0.5119  -0.4960  -0.4932  -0.4785  -0.4728  -0.4561
 -0.4525  -0.4465  -0.4371  -0.4343  -0.4325  -0.4246  -0.4192  -0.4117
 -0.4055  -0.4038  -0.3947  -0.3902  -0.3774  -0.3728  -0.3652  -0.3614
 -0.3485  -0.3456  -0.3381  -0.3085  -0.2852  -0.2843  -0.2795  -0.2159
 -0.2072
 -- Virtual --
 -0.0220  -0.0193   0.0307   0.0778   0.0841   0.0925   0.0926   0.0987
  0.1301   0.1425   0.1426   0.1445   0.1519   0.1553   0.1612   0.1682
  0.1752   0.1823   0.1872   0.1916   0.1955   0.1965   0.2059   0.2107
  0.2130   0.2212   0.2246   0.2454   0.2494   0.2561   0.2765   0.3112
  0.3288   0.3513   0.3534   0.3634   0.3887   0.4360   0.4477   0.4698
  0.4727   0.4890   0.4953   0.4972   0.5045   0.5051   0.5181   0.5359
  0.5361   0.5458   0.5524   0.5542   0.5558   0.5638   0.5729   0.5789
  0.5854   0.5928   0.5969   0.6005   0.6132   0.6216   0.6308   0.6355
  0.6451   0.6567   0.6670   0.6804   0.6856   0.7012   0.7130   0.7153
  0.7504   0.7558   0.7721   0.7868   0.8106   0.8149   0.8182   0.8216
  0.8316   0.8381   0.8482   0.8485   0.8576   0.8828   0.8871   0.8899
  0.8986   0.9059   0.9125   0.9198   0.9276   0.9343   0.9415   0.9494
  0.9614   0.9785   0.9847   0.9863   0.9937   1.0181   1.0361   1.0483
  1.0739   1.0805   1.1044   1.1309   1.1382   1.1469   1.1665   1.1679
  1.2011   1.2163   1.2166   1.2275   1.2334   1.2491   1.2811   1.2902
  1.2950   1.3139   1.3429   1.3456   1.3507   1.3722   1.3740   1.3886
  1.4100   1.4242   1.4246   1.4342   1.4477   1.4607   1.4679   1.4699
  1.4915   1.5053   1.5138   1.5254   1.5453   1.5823   1.6066   1.6332
  1.6505   1.6756   1.7160   1.7221   1.7474   1.7601   1.7705   1.7819
  1.7825   1.7885   1.8127   1.8259   1.8379   1.8436   1.8452   1.8515
  1.8575   1.8649   1.8711   1.8877   1.9002   1.9025   1.9244   1.9396
  1.9616   1.9628   1.9844   2.0084   2.0131   2.0224   2.0403   2.0430
  2.0613   2.0637   2.0870   2.0947   2.1061   2.1215   2.1402   2.1640
  2.1680   2.1745   2.1904   2.2199   2.2231   2.2394   2.2428   2.2569
  2.2613   2.2633   2.2683   2.2711   2.2749   2.3188   2.3287   2.3397
  2.3404   2.3810   2.3918   2.4367   2.4645   2.5161   2.5238   2.5247
  2.5280   2.5452   2.5780   2.6053   2.6413   2.6420   2.6747   2.7033
  2.7153   2.7227   2.7527   2.7801   2.8039   2.8177   2.8438   2.8574
  2.8655   2.8999   2.9344   2.9559   3.0153   3.0686   3.0830   3.1060
  3.1908   3.2609   3.3004   3.4194   3.5121   4.0753   4.0866   4.1035
  4.1247   4.1281   4.1703   4.2179   4.2299   4.2983   4.2999   4.3120
  4.3570   4.4260   4.4639   4.5365   4.5767   4.6966   4.7725   4.8530
  5.2907
 --------------------------------------------------------------
 
          Ground-State Mulliken Net Atomic Charges

     Atom                 Charge (a.u.)
  ----------------------------------------
      1 C                    -0.468824
      2 C                     0.303094
      3 C                    -0.453338
      4 O                    -0.511695
      5 C                     0.827727
      6 N                    -0.614268
      7 C                     0.047206
      8 C                    -0.224114
      9 C                     0.306167
     10 C                     0.105185
     11 C                    -0.282539
     12 C                     0.197538
     13 C                    -0.300847
     14 C                     0.540478
     15 F                    -0.238090
     16 F                    -0.252845
     17 C                    -0.220540
     18 C                    -0.142530
     19 O                    -0.495158
     20 C                    -0.468791
     21 H                     0.150320
     22 H                     0.189825
     23 H                     0.148033
     24 H                     0.155729
     25 H                     0.152823
     26 H                     0.155780
     27 H                     0.173926
     28 H                     0.139199
     29 H                     0.138176
     30 H                     0.156931
     31 H                     0.126433
     32 H                     0.170830
     33 H                     0.147978
     34 H                     0.189913
     35 H                     0.150287
  ----------------------------------------
  Sum of atomic charges =     0.000000

 -----------------------------------------------------------------
                    Cartesian Multipole Moments
 -----------------------------------------------------------------
    Charge (ESU x 10^10)
                 0.0000
    Dipole Moment (Debye)
         X      -3.4469      Y       0.9879      Z       0.0061
       Tot       3.5856
    Quadrupole Moments (Debye-Ang)
        XX    -105.0654     XY      -5.0107     YY    -109.6521
        XZ       0.0235     YZ       0.0108     ZZ    -115.4872
    Octopole Moments (Debye-Ang^2)
       XXX    -110.3463    XXY      -6.3904    XYY      33.0987
       YYY       9.7944    XXZ       0.1243    XYZ       0.0162
       YYZ       0.0258    XZZ      12.3332    YZZ       1.1339
       ZZZ      -0.1525
    Hexadecapole Moments (Debye-Ang^3)
      XXXX   -9373.3027   XXXY      20.7536   XXYY   -1713.7425
      XYYY      -2.0862   YYYY    -959.6761   XXXZ       0.1526
      XXYZ      -0.0035   XYYZ       0.0363   YYYZ      -0.0225
      XXZZ   -1611.1636   XYZZ      13.3132   YYZZ    -228.3836
      XZZZ      -0.4901   YZZZ      -0.1288   ZZZZ    -284.4167
 -----------------------------------------------------------------
Archival summary:
1\1\nia1977.scinet.local\SP\ProcedureUnspecified\6-31G*\2211515\rhickman\MonFeb713:24:372022MonFeb713:24:372022\0\\#,ProcedureUnspecified,6-31G*,\\0,1\O\C,1,1.33013\O,2,1.20305,1,127.037\N,2,1.38768,1,109.978,3,-179.995,0\C,4,1.38707,2,126.025,1,-179.972,0\C,5,1.38626,4,131.041,2,0.0693824,0\H,6,1.07709,5,121.031,4,-0.0103384,0\C,6,1.3784,5,117.508,4,179.998,0\H,8,1.07972,6,118.941,5,179.99,0\C,4,1.38799,2,126.149,1,0.111452,0\H,10,1.07169,4,119.607,2,-0.0733075,0\C,10,1.35077,4,110.353,2,179.923,0\H,12,1.07171,10,126.691,4,-179.995,0\C,8,1.40678,6,122.422,5,-0.0149582,0\C,14,1.39109,8,119.63,6,0.0224928,0\H,15,1.07714,14,121.574,8,179.96,0\C,15,1.38787,14,118.785,8,-0.0148797,0\C,1,1.45283,2,120.719,3,0.112559,0\C,14,1.4547,8,117.312,6,-179.995,0\H,19,1.08056,14,116.489,8,-0.371484,0\C,19,1.32456,14,128.641,8,179.573,0\F,21,1.32894,19,128.226,14,0.0101348,0\F,21,1.33373,19,123.07,14,-179.961,0\C,18,1.52744,1,110.136,2,-61.5674,0\H,24,1.08619,18,109.529,1,-174.461,0\H,24,1.08648,18,110.445,1,65.6135,0\H,24,1.08807,18,110.15,1,-54.7141,0\C,18,1.52747,1,110.129,2,61.5209,0\H,28,1.0862,18,109.55,1,174.314,0\H,28,1.08648,18,110.441,1,-65.7455,0\H,28,1.08807,18,110.137,1,54.5644,0\C,18,1.52865,1,103.758,2,179.977,0\H,32,1.08562,18,109.945,1,179.945,0\H,32,1.08687,18,110.114,1,-59.9052,0\H,32,1.08688,18,110.109,1,59.7987,0\\\@

 Total job time:  76.74s(wall), 76.53s(cpu) 
 Mon Feb  7 13:24:37 2022

        *************************************************************
        *                                                           *
        *  Thank you very much for using Q-Chem.  Have a nice day.  *
        *                                                           *
        *************************************************************


