
Running Job 1 of 1 tidas/B051/conf-1/spe_input.inp
qchem tidas/B051/conf-1/spe_input.inp_134547.0 /home/a/aspuru/seifridm/acdc_laser/descriptor_computation/qchem134547/ 0
/gpfs/fs1/scinet/niagara/software/commercial/qc54/exe/qcprog.exe_s tidas/B051/conf-1/spe_input.inp_134547.0 /home/a/aspuru/seifridm/acdc_laser/descriptor_computation/qchem134547/
                  Welcome to Q-Chem
     A Quantum Leap Into The Future Of Chemistry


 Q-Chem 5.4, Q-Chem, Inc., Pleasanton, CA (2021)

 License issued to: SRG Alan Aspuru-Guzik, University of Toronto

 E. Epifanovsky,  A. T. B. Gilbert,  Xintian Feng,  Joonho Lee,  Yuezhi Mao,  
 N. Mardirossian,  P. Pokhilko,  A. White,  M. Wormit,  M. P. Coons,  
 A. L. Dempwolff,  Zhengting Gan,  D. Hait,  P. R. Horn,  L. D. Jacobson,  
 I. Kaliman,  J. Kussmann,  A. W. Lange,  Ka Un Lao,  D. S. Levine,  Jie Liu,  
 S. C. McKenzie,  A. F. Morrison,  K. Nanda,  F. Plasser,  D. R. Rehn,  
 M. L. Vidal,  Zhi-Qiang You,  Ying Zhu,  B. Alam,  B. Albrecht,  
 A. Aldossary,  E. Alguire,  J. H. Andersen,  D. Barton,  K. Begam,  A. Behn,  
 Y. A. Bernard,  E. J. Berquist,  H. Burton,  A. Carreras,  K. Carter-Fenk,  
 Romit Chakraborty,  A. D. Chien,  K. D. Closser,  V. Cofer-Shabica,  
 S. Dasgupta,  Jia Deng,  M. de Wergifosse,  M. Diedenhofen,  Hainam Do,  
 S. Ehlert,  Po-Tung Fang,  S. Fatehi,  Qingguo Feng,  T. Friedhoff,  
 J. Gayvert,  Qinghui Ge,  G. Gidofalvi,  M. Goldey,  J. Gomes,  
 C. Gonzalez-Espinoza,  S. Gulania,  A. Gunina,  M. W. D. Hanson-Heine,  
 P. H. P. Harbach,  A. W. Hauser,  M. F. Herbst,  M. Hernandez Vera,  
 M. Hodecker,  Z. C. Holden,  S. Houck,  Xunkun Huang,  Kerwin Hui,  
 B. C. Huynh,  M. Ivanov,  Hyunjun Ji,  Hanjie Jiang,  B. Kaduk,  S. Kaehler,  
 K. Khistyaev,  Jaehoon Kim,  P. Klunzinger,  Z. Koczor-Benda,  
 Joong Hoon Koh,  D. Kosenkov,  L. Koulias,  T. Kowalczyk,  C. M. Krauter,  
 K. Kue,  A. Kunitsa,  T. Kus,  A. Landau,  K. V. Lawler,  D. Lefrancois,  
 S. Lehtola,  Rain Li,  Yi-Pei Li,  Jiashu Liang,  M. Liebenthal,  
 Hung-Hsuan Lin,  You-Sheng Lin,  Fenglai Liu,  Kuan-Yu Liu,  
 M. Loipersberger,  A. Luenser,  A. Manjanath,  P. Manohar,  E. Mansoor,  
 S. F. Manzer,  Shan-Ping Mao,  A. V. Marenich,  T. Markovich,  S. Mason,  
 S. A. Maurer,  P. F. McLaughlin,  M. F. S. J. Menger,  J.-M. Mewes,  
 S. A. Mewes,  P. Morgante,  J. W. Mullinax,  K. J. Oosterbaan,  G. Paran,  
 Alexander C. Paul,  Suranjan K. Paul,  F. Pavosevic,  Zheng Pei,  S. Prager,  
 E. I. Proynov,  E. Ramos,  B. Rana,  A. E. Rask,  A. Rettig,  R. M. Richard,  
 F. Rob,  E. Rossomme,  T. Scheele,  M. Scheurer,  M. Schneider,  
 N. Sergueev,  S. M. Sharada,  W. Skomorowski,  D. W. Small,  C. J. Stein,  
 Yu-Chuan Su,  E. J. Sundstrom,  Zhen Tao,  J. Thirman,  T. Tsuchimochi,  
 N. M. Tubman,  S. P. Veccham,  O. Vydrov,  J. Wenzel,  J. Witte,  A. Yamada,  
 Kun Yao,  S. Yeganeh,  S. R. Yost,  A. Zech,  Igor Ying Zhang,  Xing Zhang,  
 Yu Zhang,  D. Zuev,  A. Aspuru-Guzik,  A. T. Bell,  N. A. Besley,  
 K. B. Bravaya,  B. R. Brooks,  D. Casanova,  Jeng-Da Chai,  S. Coriani,  
 C. J. Cramer,  A. E. DePrince, III,  R. A. DiStasio Jr.,  A. Dreuw,  
 B. D. Dunietz,  T. R. Furlani,  W. A. Goddard III,  S. Grimme,  
 S. Hammes-Schiffer,  T. Head-Gordon,  W. J. Hehre,  Chao-Ping Hsu,  
 T.-C. Jagau,  Yousung Jung,  A. Klamt,  Jing Kong,  D. S. Lambrecht,  
 WanZhen Liang,  N. J. Mayhall,  C. W. McCurdy,  J. B. Neaton,  T. Neudecker,  
 C. Ochsenfeld,  J. A. Parkhill,  R. Peverati,  V. A. Rassolov,  Yihan Shao,  
 L. V. Slipchenko,  R. P. Steele,  J. E. Subotnik,  A. J. W. Thom,  
 A. Tkatchenko,  D. G. Truhlar,  T. Van Voorhis,  T. A. Wesolowski,  
 K. B. Whaley,  H. L. Woodcock III,  P. M. Zimmerman,  S. Faraji,  
 P. M. W. Gill,  M. Head-Gordon,  J. M. Herbert,  A. I. Krylov

 Additional authors since Version 5.4.0: 
 Chandrima Chakravarty,  L. Cunha,  R. Kang,  Yongbin Kim,  S. Kotaru,  
 Shaozhi Li,  Xiangyuan Li,  F. Matz,  A. Molle,  V. Parravicini,  
 Haisheng Ren,  Hengyuan Shen,  Yingli Su,  Hung-Yi Tsai,  C. Utku,  
 Fang Wang,  Jeff Yang,  F. Zeller

 Contributors to earlier versions of Q-Chem not listed above: 
 R. D. Adamson,  B. Austin,  R. Baer,  J. Baker,  G. J. O. Beran,  
 K. Brandhorst,  S. T. Brown,  E. F. C. Byrd,  Arup K. Chakraborty,  
 G. K. L. Chan,  Chun-Min Chang,  Yunqing Chen,  C.-L. Cheng,  
 Siu Hung Chien,  D. M. Chipman,  D. L. Crittenden,  H. Dachsel,  
 R. J. Doerksen,  A. D. Dutoi,  R. G. Edgar,  J. Fosso-Tande,  
 L. Fusti-Molnar,  D. Ghosh,  A. Ghysels,  A. Golubeva-Zadorozhnaya,  
 J. Gonthier,  M. S. Gordon,  S. R. Gwaltney,  G. Hawkins,  J. E. Herr,  
 A. Heyden,  S. Hirata,  E. G. Hohenstein,  G. Kedziora,  F. J. Keil,  
 C. Kelley,  Jihan Kim,  R. A. King,  R. Z. Khaliullin,  P. P. Korambath,  
 W. Kurlancheek,  A. Laurent,  A. M. Lee,  M. S. Lee,  S. V. Levchenko,  
 Ching Yeh Lin,  D. Liotard,  E. Livshits,  R. C. Lochan,  I. Lotan,  
 L. A. Martinez-Martinez,  P. E. Maslen,  N. Nair,  D. P. O'Neill,  
 D. Neuhauser,  E. Neuscamman,  C. M. Oana,  R. Olivares-Amaya,  R. Olson,  
 T. M. Perrine,  B. Peters,  P. A. Pieniazek,  A. Prociuk,  Y. M. Rhee,  
 J. Ritchie,  M. A. Rohrdanz,  E. Rosta,  N. J. Russ,  H. F. Schaefer III,  
 M. W. Schmidt,  N. E. Schultz,  S. Sharma,  N. Shenvi,  C. D. Sherrill,  
 A. C. Simmonett,  A. Sodt,  T. Stein,  D. Stuck,  K. S. Thanthiriwatte,  
 V. Vanovschi,  L. Vogt,  Tao Wang,  A. Warshel,  M. A. Watson,  
 C. F. Williams,  Q. Wu,  X. Xu,  Jun Yang,  W. Zhang,  Yan Zhao

   Please cite Q-Chem as follows:
  "Software for the frontiers of quantum chemistry:
   An overview of developments in the Q-Chem 5 package"
   J. Chem. Phys. 155, 084801 (2021)
   https://doi.org/10.1063/5.0055522 (open access)

 Q-Chem 5.4.2 for Intel X86 EM64T Linux

 Parts of Q-Chem use Armadillo 9.900.5 (Nocturnal Misbehaviour).
 http://arma.sourceforge.net/

 Q-Chem begins on Fri Aug 12 13:11:43 2022  

 Host: 
0

     Scratch files written to /home/a/aspuru/seifridm/acdc_laser/descriptor_computation/qchem134547//
 Dec1321 |scratch|qcdevops|jenkins|workspace|build_RNUM 6959   
 Processing $rem in /gpfs/fs1/scinet/niagara/software/commercial/qc54/config/preferences:
 Processing $rem in /home/a/aspuru/seifridm/.qchemrc:

 Checking the input file for inconsistencies... 	...done.

--------------------------------------------------------------
User input:
--------------------------------------------------------------
$molecule
0 1
C            2.01513312240000        2.68245562300000        0.36035024630000
C            0.75651867030000        2.67613251240000        0.77894830090000
C           -0.25515408980000        1.66920758730000        0.46286776320000
C           -1.57152160580000        2.09726673760000        0.29329637140000
C           -2.58150972120000        1.22166948600000       -0.04904580090000
C           -2.28333164060000       -0.12108712050000       -0.19713104620000
F           -3.25791841680000       -0.99027947440000       -0.50553978010000
C           -0.98634386530000       -0.57565712760000       -0.00595926370000
F           -0.73981929090000       -1.89288076890000       -0.08148178940000
C            0.04798973310000        0.30439720280000        0.31398019770000
C            1.39063580960000       -0.21247851240000        0.57678294650000
C            2.00996757100000       -1.13815918280000       -0.13833536870000
F            1.59190758160000       -1.68871416490000       -1.26453251320000
F            3.22060264580000       -1.59934592790000        0.15841730180000
H            2.68509568250000        3.48349276260000        0.62168409990000
H            2.41534666640000        1.91588543190000       -0.28019930010000
H            0.38981954570000        3.50718903240000        1.36838858060000
H           -1.79951326810000        3.14487899120000        0.41732080920000
H           -3.59630488460000        1.55561500280000       -0.19225218730000
H            1.91771196200000        0.18766518680000        1.42995963430000
$end

$rem
BASIS = 6-31G*
GUI = 2
METHOD = B3LYP
PRINT_ORBITALS false
MOLDEN_FORMAT false
$end
--------------------------------------------------------------
 ----------------------------------------------------------------
             Standard Nuclear Orientation (Angstroms)
    I     Atom           X                Y                Z
 ----------------------------------------------------------------
    1      C       1.3838255319    -2.9639649756     0.3678492713
    2      C       0.1627916408    -2.7830029525    -0.1176439161
    3      C      -0.6013938125    -1.5369002716    -0.0945098252
    4      C      -1.9817904543    -1.6209429925     0.0850854492
    5      C      -2.7739541302    -0.4938412006     0.1629504893
    6      C      -2.1847241140     0.7505228322     0.0280399493
    7      F      -2.9434701484     1.8561409359     0.0764521772
    8      C      -0.8170706834     0.8589489204    -0.1796273525
    9      F      -0.2831531073     2.0735545187    -0.3826578957
   10      C      -0.0024028900    -0.2724870117    -0.2332183432
   11      C       1.4244061790    -0.1311758468    -0.5216127113
   12      C       2.2276576429     0.7781900388     0.0072459758
   13      F       1.9317892590     1.6490883505     0.9560362484
   14      F       3.5137008609     0.8872731327    -0.3099075607
   15      H       1.8604241978    -3.9285095489     0.3316112827
   16      H       1.9387099296    -2.1755614469     0.8459995000
   17      H      -0.3743613519    -3.6281128950    -0.5297347778
   18      H      -2.4368908180    -2.5947368568     0.1823626922
   19      H      -3.8391201135    -0.5595189995     0.3144257531
   20      H       1.8573669159    -0.8201519335    -1.2313250920
 ----------------------------------------------------------------
 Molecular Point Group                 C1    NOp =  1
 Largest Abelian Subgroup              C1    NOp =  1
 Nuclear Repulsion Energy =         880.14702342 hartrees
 There are       51 alpha and       51 beta electrons
 Requested basis set is 6-31G(d)
 There are 68 shells and 222 basis functions

 Total QAlloc Memory Limit   8000 MB
 Mega-Array Size       188 MB
 MEM_STATIC part       192 MB
 A cutoff of  1.0D-08 yielded   1596 shell pairs
 There are     18297 function pairs
 Smallest overlap matrix eigenvalue = 3.33E-04

 Scale SEOQF with 1.000000e-01/1.000000e-01/1.000000e+00

 Standard Electronic Orientation quadrupole field applied
 Nucleus-field energy     =     0.0000000174 hartrees
 Guess from superposition of atomic densities
 Warning:  Energy on first SCF cycle will be non-variational
 SAD guess density has 102.000000 electrons

 -----------------------------------------------------------------------
  General SCF calculation program by
  Eric Jon Sundstrom, Paul Horn, Yuezhi Mao, Dmitri Zuev, Alec White,
  David Stuck, Shaama M.S., Shane Yost, Joonho Lee, David Small,
  Daniel Levine, Susi Lehtola, Hugh Burton, Evgeny Epifanovsky,
  Bang C. Huynh
 -----------------------------------------------------------------------
 Exchange:     0.2000 Hartree-Fock + 0.0800 Slater + 0.7200 B88
 Correlation:  0.1900 VWN1RPA + 0.8100 LYP
 Using SG-1 standard quadrature grid
 A restricted SCF calculation will be
 performed using DIIS
 SCF converges when DIIS error is below 1.0e-05
 ---------------------------------------
  Cycle       Energy         DIIS error
 ---------------------------------------
    1    -787.0398470344      5.25e-02  
    2    -783.7657182337      5.85e-03  
    3    -783.5242496659      8.43e-03  
    4    -783.9494086282      1.65e-03  
    5    -783.9654853163      5.66e-04  
    6    -783.9670529214      2.47e-04  
    7    -783.9674368946      4.65e-05  
    8    -783.9674482552      1.89e-05  
    9    -783.9674504960      3.56e-06  Convergence criterion met
 ---------------------------------------
 SCF time:   CPU 52.14s  wall 56.00s 
 SCF   energy in the final basis set =     -783.9674504960
 Total energy in the final basis set =     -783.9674504960
 
 --------------------------------------------------------------
 
                    Orbital Energies (a.u.)
 --------------------------------------------------------------
 
 Alpha MOs
 -- Occupied --
-24.7402 -24.7361 -24.7177 -24.7162 -10.3590 -10.2836 -10.2827 -10.2231
-10.2125 -10.2063 -10.2058 -10.2038 -10.2022 -10.1903  -1.2862  -1.2371
 -1.2260  -1.2225  -0.8893  -0.8194  -0.8025  -0.7545  -0.7394  -0.6634
 -0.6361  -0.6228  -0.5896  -0.5730  -0.5604  -0.5420  -0.5291  -0.5167
 -0.5013  -0.4850  -0.4763  -0.4605  -0.4526  -0.4460  -0.4399  -0.4385
 -0.4300  -0.4149  -0.4019  -0.3984  -0.3704  -0.3683  -0.3560  -0.2987
 -0.2933  -0.2432  -0.2279
 -- Virtual --
 -0.0397  -0.0206   0.0321   0.0493   0.0732   0.1073   0.1127   0.1330
  0.1429   0.1616   0.1699   0.1764   0.1901   0.2084   0.2236   0.2691
  0.3050   0.3292   0.3386   0.3543   0.3716   0.4117   0.4153   0.4590
  0.4874   0.4920   0.5099   0.5176   0.5287   0.5339   0.5480   0.5585
  0.5680   0.5760   0.5789   0.5892   0.6022   0.6105   0.6194   0.6351
  0.6562   0.6616   0.6892   0.6957   0.7129   0.7403   0.7846   0.8100
  0.8386   0.8436   0.8475   0.8599   0.8695   0.9052   0.9135   0.9301
  0.9406   0.9519   0.9811   1.0008   1.0217   1.0496   1.0772   1.0905
  1.1191   1.1315   1.1587   1.1653   1.1747   1.1920   1.2152   1.2348
  1.2394   1.2555   1.2737   1.3030   1.3457   1.3578   1.3704   1.3917
  1.3958   1.4151   1.4312   1.4428   1.4521   1.4735   1.4877   1.5092
  1.5299   1.5447   1.5993   1.6344   1.6665   1.6948   1.7227   1.7496
  1.7622   1.7747   1.7904   1.7937   1.8054   1.8276   1.8329   1.8427
  1.8583   1.8655   1.8873   1.8888   1.9062   1.9517   1.9687   1.9770
  1.9900   1.9975   2.0169   2.0327   2.0424   2.0723   2.0924   2.1080
  2.1293   2.1704   2.1908   2.2055   2.2416   2.2507   2.2613   2.2924
  2.3102   2.3319   2.3672   2.3774   2.4036   2.4236   2.4684   2.5298
  2.5507   2.5749   2.5876   2.6087   2.6467   2.6670   2.7030   2.7266
  2.7366   2.7932   2.8333   2.8688   2.9465   2.9975   3.0487   3.0706
  3.1240   3.1485   3.2111   3.3421   3.4681   4.0486   4.0883   4.0957
  4.1299   4.1552   4.2230   4.2927   4.4166   4.4278   4.6958   4.7414
  4.9762   5.3083   6.2266
 --------------------------------------------------------------
 
          Ground-State Mulliken Net Atomic Charges

     Atom                 Charge (a.u.)
  ----------------------------------------
      1 C                    -0.337454
      2 C                    -0.139867
      3 C                     0.118632
      4 C                    -0.191515
      5 C                    -0.198711
      6 C                     0.324304
      7 F                    -0.281521
      8 C                     0.261722
      9 F                    -0.276866
     10 C                     0.031013
     11 C                    -0.333641
     12 C                     0.573409
     13 F                    -0.229772
     14 F                    -0.245656
     15 H                     0.148514
     16 H                     0.160571
     17 H                     0.138949
     18 H                     0.139891
     19 H                     0.155018
     20 H                     0.182980
  ----------------------------------------
  Sum of atomic charges =     0.000000

 -----------------------------------------------------------------
                    Cartesian Multipole Moments
 -----------------------------------------------------------------
    Charge (ESU x 10^10)
                 0.0000
    Dipole Moment (Debye)
         X      -0.4593      Y      -2.8997      Z      -0.2405
       Tot       2.9457
    Quadrupole Moments (Debye-Ang)
        XX     -73.6805     XY       1.7569     YY     -74.3712
        XZ      -0.4552     YZ       0.5891     ZZ     -76.7311
    Octopole Moments (Debye-Ang^2)
       XXX      -1.5607    XXY      -3.1905    XYY       9.5183
       YYY      25.0504    XXZ       4.6711    XYZ      -0.9496
       YYZ      -1.8761    XZZ       9.0692    YZZ      20.6609
       ZZZ       2.0723
    Hexadecapole Moments (Debye-Ang^3)
      XXXX   -1699.5296   XXXY      24.0826   XXYY    -494.0360
      XYYY       9.5625   YYYY   -1220.8534   XXXZ       0.7193
      XXYZ      -4.9765   XYYZ       3.6373   YYYZ      16.0543
      XXZZ    -310.3008   XYZZ      -3.7805   YYZZ    -246.8124
      XZZZ       4.7195   YZZZ       8.9872   ZZZZ    -130.2619
 -----------------------------------------------------------------
 Total job time:  59.61s(wall), 52.64s(cpu) 
 Fri Aug 12 13:12:42 2022

        *************************************************************
        *                                                           *
        *  Thank you very much for using Q-Chem.  Have a nice day.  *
        *                                                           *
        *************************************************************


