
Running Job 1 of 1 fragments/C160/conf-5/spe_input.inp
qchem fragments/C160/conf-5/spe_input.inp_29456.0 /gpfs/fs0/scratch/a/aspuru/rhickman/descriptor_computation/qchem29456/ 0
/scinet/niagara/software/commercial/qc52/exe/qcprog.exe_s fragments/C160/conf-5/spe_input.inp_29456.0 /gpfs/fs0/scratch/a/aspuru/rhickman/descriptor_computation/qchem29456/
                  Welcome to Q-Chem
     A Quantum Leap Into The Future Of Chemistry


 Q-Chem 5.2, Q-Chem, Inc., Pleasanton, CA (2019)

 License issued to: SRG Alan Aspuru-Guzik, University of Toronto

 Yihan Shao,  Zhengting Gan,  E. Epifanovsky,  A. T. B. Gilbert,  M. Wormit,  
 J. Kussmann,  A. W. Lange,  A. Behn,  Jia Deng,  Xintian Feng,  D. Ghosh,  
 M. Goldey,  P. R. Horn,  L. D. Jacobson,  I. Kaliman,  T. Kus,  A. Landau,  
 Jie Liu,  E. I. Proynov,  R. M. Richard,  R. P. Steele,  E. J. Sundstrom,  
 H. L. Woodcock III,  P. M. Zimmerman,  D. Zuev,  B. Albrecht,  E. Alguire,  
 S. A. Baeppler,  D. Barton,  Z. Benda,  Y. A. Bernard,  E. J. Berquist,  
 K. B. Bravaya,  H. Burton,  D. Casanova,  Chun-Min Chang,  Yunqing Chen,  
 A. Chien,  K. D. Closser,  M. P. Coons,  S. Coriani,  S. Dasgupta,  
 A. L. Dempwolff,  M. Diedenhofen,  Hainam Do,  R. G. Edgar,  Po-Tung Fang,  
 S. Faraji,  S. Fatehi,  Qingguo Feng,  K. D. Fenk,  J. Fosso-Tande,  
 J. Gayvert,  Qinghui Ge,  A. Ghysels,  G. Gidofalvi,  J. Gomes,  
 J. Gonthier,  A. Gunina,  D. Hait,  M. W. D. Hanson-Heine,  
 P. H. P. Harbach,  A. W. Hauser,  M. F. Herbst,  J. E. Herr,  
 E. G. Hohenstein,  Z. C. Holden,  Kerwin Hui,  B. C. Huynh,  T.-C. Jagau,  
 Hyunjun Ji,  B. Kaduk,  K. Khistyaev,  Jaehoon Kim,  P. Klunzinger,  K. Koh,  
 D. Kosenkov,  L. Koulias,  T. Kowalczyk,  C. M. Krauter,  A. Kunitsa,  
 Ka Un Lao,  A. Laurent,  K. V. Lawler,  Joonho Lee,  D. Lefrancois,  
 S. Lehtola,  D. S. Levine,  Yi-Pei Li,  You-Sheng Lin,  Fenglai Liu,  
 E. Livshits,  A. Luenser,  P. Manohar,  E. Mansoor,  S. F. Manzer,  
 Shan-Ping Mao,  Yuezhi Mao,  N. Mardirossian,  A. V. Marenich,  
 T. Markovich,  L. A. Martinez-Martinez,  S. A. Maurer,  N. J. Mayhall,  
 S. C. McKenzie,  J.-M. Mewes,  P. Morgante,  A. F. Morrison,  
 J. W. Mullinax,  K. Nanda,  T. S. Nguyen-Beck,  R. Olivares-Amaya,  
 J. A. Parkhill,  Zheng Pei,  T. M. Perrine,  F. Plasser,  P. Pokhilko,  
 S. Prager,  A. Prociuk,  E. Ramos,  D. R. Rehn,  F. Rob,  M. Scheurer,  
 M. Schneider,  N. Sergueev,  S. M. Sharada,  S. Sharma,  D. W. Small,  
 T. Stauch,  T. Stein,  Yu-Chuan Su,  A. J. W. Thom,  A. Tkatchenko,  
 T. Tsuchimochi,  N. M. Tubman,  L. Vogt,  M. L. Vidal,  O. Vydrov,  
 M. A. Watson,  J. Wenzel,  M. de Wergifosse,  T. A. Wesolowski,  A. White,  
 J. Witte,  A. Yamada,  Jun Yang,  K. Yao,  S. Yeganeh,  S. R. Yost,  
 Zhi-Qiang You,  A. Zech,  Igor Ying Zhang,  Xing Zhang,  Yan Zhao,  
 Ying Zhu,  B. R. Brooks,  G. K. L. Chan,  C. J. Cramer,  M. S. Gordon,  
 W. J. Hehre,  A. Klamt,  M. W. Schmidt,  C. D. Sherrill,  D. G. Truhlar,  
 A. Aspuru-Guzik,  R. Baer,  A. T. Bell,  N. A. Besley,  Jeng-Da Chai,  
 A. E. DePrince, III,  R. A. DiStasio Jr.,  A. Dreuw,  B. D. Dunietz,  
 T. R. Furlani,  Chao-Ping Hsu,  Yousung Jung,  Jing Kong,  D. S. Lambrecht,  
 WanZhen Liang,  C. Ochsenfeld,  V. A. Rassolov,  L. V. Slipchenko,  
 J. E. Subotnik,  T. Van Voorhis,  J. M. Herbert,  A. I. Krylov,  
 P. M. W. Gill,  M. Head-Gordon

 Contributors to earlier versions of Q-Chem not listed above: 
 R. D. Adamson,  B. Austin,  J. Baker,  G. J. O. Beran,  K. Brandhorst,  
 S. T. Brown,  E. F. C. Byrd,  A. K. Chakraborty,  C.-L. Cheng,  
 Siu Hung Chien,  D. M. Chipman,  D. L. Crittenden,  H. Dachsel,  
 R. J. Doerksen,  A. D. Dutoi,  L. Fusti-Molnar,  W. A. Goddard III,  
 A. Golubeva-Zadorozhnaya,  S. R. Gwaltney,  G. Hawkins,  A. Heyden,  
 S. Hirata,  G. Kedziora,  F. J. Keil,  C. Kelley,  Jihan Kim,  R. A. King,  
 R. Z. Khaliullin,  P. P. Korambath,  W. Kurlancheek,  A. M. Lee,  M. S. Lee,  
 S. V. Levchenko,  Ching Yeh Lin,  D. Liotard,  R. C. Lochan,  I. Lotan,  
 P. E. Maslen,  N. Nair,  D. P. O'Neill,  D. Neuhauser,  E. Neuscamman,  
 C. M. Oana,  R. Olson,  B. Peters,  R. Peverati,  P. A. Pieniazek,  
 Y. M. Rhee,  J. Ritchie,  M. A. Rohrdanz,  E. Rosta,  N. J. Russ,  
 H. F. Schaefer III,  N. E. Schultz,  N. Shenvi,  A. C. Simmonett,  A. Sodt,  
 D. Stuck,  K. S. Thanthiriwatte,  V. Vanovschi,  Tao Wang,  A. Warshel,  
 C. F. Williams,  Q. Wu,  X. Xu,  W. Zhang

 Please cite Q-Chem as follows:
 Y. Shao et al., Mol. Phys. 113, 184-215 (2015)
 DOI: 10.1080/00268976.2014.952696

 Q-Chem 5.2.1 for Intel X86 EM64T Linux

 Parts of Q-Chem use Armadillo 8.300.2 (Tropical Shenanigans).
 http://arma.sourceforge.net/

 Q-Chem begins on Mon Feb  7 12:36:51 2022  

Host: 
0

     Scratch files written to /gpfs/fs0/scratch/a/aspuru/rhickman/descriptor_computation/qchem29456//
 Jul1719 |scratch|qcdevops|jenkins|workspace|build_RNUM -1
Processing $rem in /scinet/niagara/software/commercial/qc52/config/preferences:
	 MEM_TOTAL  4000 
NAlpha2: 116
NElect   116
Mult     1

Checking the input file for inconsistencies... 	...done.

--------------------------------------------------------------
User input:
--------------------------------------------------------------
$molecule
0 1
C         2.40615644390000   -3.64122937460000   -0.06382030340000
C         1.19227224120000   -3.10188915080000   -0.06161561350000
C         0.83171991170000   -1.69137782540000   -0.01290712620000
C        -0.51193141690000   -1.34364988590000   -0.05470592310000
C        -0.97302538160000   -0.02975703320000    0.00115705090000
C        -2.44189484320000    0.10248811790000   -0.02122168640000
O        -3.19798058430000   -0.83605809600000   -0.10348302210000
O        -2.91221362120000    1.37143712090000    0.06884506130000
C        -4.32670807060000    1.49857338900000    0.04852316200000
C        -0.04678813970000    1.03403197320000    0.08032367980000
N        -0.42929116080000    2.33329247580000    0.13030164350000
C         1.33217036700000    0.71296660530000    0.09806764590000
C         2.38314317430000    1.73529679970000    0.16935197960000
C         2.41999460250000    2.86333654290000   -0.52784627860000
C         1.72475554190000   -0.61748885350000    0.07535557020000
F         3.05356594190000   -0.85115790420000    0.12368451460000
H         2.52827053650000   -4.71054360190000   -0.10483514180000
H         3.31265344580000   -3.06551272330000   -0.02793605410000
H         0.33043671730000   -3.75692781290000   -0.10335676410000
H        -1.25903868350000   -2.12045782420000   -0.12400285430000
H        -4.53733009040000    2.56393359020000    0.10107483070000
H        -4.76655692740000    0.97632999200000    0.90042432000000
H        -4.73119085740000    1.07120083920000   -0.87070671570000
H        -1.40157646400000    2.53212109140000    0.28924797850000
H         0.25894953270000    3.00925028650000    0.41842301860000
H         3.21156350440000    1.48627960040000    0.82133282800000
H         1.66357051480000    3.12291641660000   -1.24990529220000
H         3.24446527100000    3.54942925910000   -0.43243749430000
$end

$rem
BASIS = 6-31G*
GUI = 2
METHOD = B3LYP
PRINT_ORBITALS false
MOLDEN_FORMAT false
--------------------------------------------------------------
 ----------------------------------------------------------------
             Standard Nuclear Orientation (Angstroms)
    I     Atom           X                Y                Z
 ----------------------------------------------------------------
    1      C       3.6791709584     2.4068933415     0.0632878403
    2      C       2.3509613820     2.3909482136     0.0668472592
    3      C       1.4623009676     1.2379745809     0.0134883970
    4      C       0.0907725142     1.4489852960     0.0629346497
    5      C      -0.8521127970     0.4245383285     0.0036181666
    6      C      -2.2536320422     0.8831087049     0.0356197021
    7      O      -2.5770712142     2.0433512597     0.1279554313
    8      O      -3.1873880950    -0.0961522293    -0.0576058355
    9      C      -4.5369466553     0.3456478442    -0.0280162251
   10      C      -0.4218277716    -0.9179930976    -0.0874532360
   11      N      -1.2867090385    -1.9600864325    -0.1413613721
   12      C       0.9717090356    -1.1676231646    -0.1132287799
   13      C       1.5329954596    -2.5213995817    -0.1970815496
   14      C       1.1243037397    -3.5774154793     0.4940903562
   15      C       1.8580550931    -0.1006523191    -0.0864973984
   16      F       3.1708619567    -0.4105316884    -0.1429500924
   17      H       4.2139661275     3.3406715444     0.1088880602
   18      H       4.2843267779     1.5202026122     0.0181199206
   19      H       1.8181959387     3.3328222248     0.1179625420
   20      H      -0.2883708712     2.4571976787     0.1414202541
   21      H      -5.1515385582    -0.5494502848    -0.0845122749
   22      H      -4.7384735311     1.0054931510    -0.8741437893
   23      H      -4.7356189502     0.8911837550     0.8961899632
   24      H      -2.2591489252    -1.7574900800    -0.2944980800
   25      H      -0.9227715901    -2.8507710201    -0.4377372144
   26      H       2.3895094168    -2.6150241904    -0.8535776344
   27      H       0.3300666104    -3.5224554679     1.2201035172
   28      H       1.6102383840    -4.5326579472     0.3894133124
 ----------------------------------------------------------------
 Molecular Point Group                 C1    NOp =  1
 Largest Abelian Subgroup              C1    NOp =  1
 Nuclear Repulsion Energy =        1074.62781396 hartrees
 There are       58 alpha and       58 beta electrons
 Requested basis set is 6-31G(d)
 There are 88 shells and 264 basis functions

 Total QAlloc Memory Limit   4000 MB
 Mega-Array Size       188 MB
 MEM_STATIC part       192 MB
 A cutoff of  1.0D-08 yielded   2316 shell pairs
 There are     23326 function pairs
 Smallest overlap matrix eigenvalue = 2.61E-04

 Scale SEOQF with 1.000000e-01/1.000000e-01/1.000000e+00

 Standard Electronic Orientation quadrupole field applied
 Nucleus-field energy     =     0.0000000442 hartrees
 Guess from superposition of atomic densities
 Warning:  Energy on first SCF cycle will be non-variational
 SAD guess density has 116.000000 electrons

 -----------------------------------------------------------------------
  General SCF calculation program by
  Eric Jon Sundstrom, Paul Horn, Yuezhi Mao, Dmitri Zuev, Alec White,
  David Stuck, Shaama M.S., Shane Yost, Joonho Lee, David Small,
  Daniel Levine, Susi Lehtola, Hugh Burton, Evgeny Epifanovsky,
  Bang C. Huynh
 -----------------------------------------------------------------------
 Exchange:     0.2000 Hartree-Fock + 0.0800 Slater + 0.7200 B88
 Correlation:  0.1900 VWN1RPA + 0.8100 LYP
 Using SG-1 standard quadrature grid
 A restricted SCF calculation will be
 performed using DIIS
 SCF converges when DIIS error is below 1.0e-05
 ---------------------------------------
  Cycle       Energy         DIIS error
 ---------------------------------------
    1    -773.1406228871      5.01e-02  
    2    -769.2423795308      5.81e-03  
    3    -768.9594197180      8.73e-03  
    4    -769.4706720700      2.36e-03  
    5    -769.5101473531      5.19e-04  
    6    -769.5115094995      2.58e-04  
    7    -769.5120227978      6.58e-05  
    8    -769.5120572861      2.48e-05  
    9    -769.5120622843      6.31e-06  Convergence criterion met
 ---------------------------------------
 SCF time:   CPU 48.95s  wall 49.00s 
 SCF   energy in the final basis set =     -769.5120622843
 Total energy in the final basis set =     -769.5120622843
 
 --------------------------------------------------------------
 
                    Orbital Energies (a.u.)
 --------------------------------------------------------------
 
 Alpha MOs
 -- Occupied --
-24.7159 -19.2012 -19.1302 -14.3471 -10.3149 -10.2784 -10.2515 -10.2452
-10.2024 -10.2007 -10.1976 -10.1955 -10.1937 -10.1884 -10.1858 -10.1679
 -1.2272  -1.1123  -1.0172  -0.9416  -0.8603  -0.8090  -0.7867  -0.7539
 -0.7308  -0.7171  -0.6424  -0.6380  -0.6031  -0.5766  -0.5615  -0.5538
 -0.5393  -0.5173  -0.4916  -0.4900  -0.4734  -0.4689  -0.4643  -0.4591
 -0.4521  -0.4310  -0.4262  -0.4113  -0.4061  -0.3881  -0.3831  -0.3772
 -0.3698  -0.3521  -0.3367  -0.3329  -0.3080  -0.2998  -0.2761  -0.2659
 -0.2384  -0.1972
 -- Virtual --
 -0.0400  -0.0218   0.0021   0.0575   0.0938   0.0999   0.1079   0.1178
  0.1217   0.1276   0.1354   0.1469   0.1508   0.1688   0.1692   0.1853
  0.1950   0.1969   0.2096   0.2337   0.2547   0.2694   0.2754   0.3141
  0.3235   0.3385   0.3503   0.3649   0.3732   0.3943   0.4098   0.4416
  0.4816   0.4923   0.5021   0.5122   0.5165   0.5279   0.5284   0.5497
  0.5529   0.5569   0.5655   0.5794   0.5851   0.5936   0.6003   0.6108
  0.6204   0.6297   0.6449   0.6547   0.6690   0.6853   0.6872   0.6950
  0.6999   0.7210   0.7264   0.7553   0.7742   0.7792   0.8067   0.8273
  0.8356   0.8425   0.8475   0.8575   0.8627   0.8694   0.8885   0.8986
  0.9093   0.9205   0.9268   0.9381   0.9473   0.9578   0.9828   0.9858
  0.9890   1.0002   1.0036   1.0230   1.0720   1.0764   1.0869   1.1103
  1.1226   1.1296   1.1640   1.2077   1.2126   1.2292   1.2437   1.2507
  1.2719   1.2965   1.3124   1.3366   1.3597   1.3722   1.3860   1.3906
  1.4071   1.4201   1.4397   1.4593   1.4721   1.4814   1.4959   1.5078
  1.5242   1.5781   1.6045   1.6214   1.6451   1.6757   1.6785   1.6852
  1.7240   1.7381   1.7448   1.7567   1.7826   1.8039   1.8216   1.8406
  1.8495   1.8593   1.8723   1.8850   1.8975   1.9220   1.9439   1.9770
  1.9957   2.0191   2.0270   2.0423   2.0499   2.0570   2.0843   2.1011
  2.1133   2.1158   2.1278   2.1412   2.1838   2.2027   2.2142   2.2420
  2.2629   2.2650   2.2815   2.2957   2.3127   2.3148   2.3502   2.3760
  2.3792   2.4026   2.4054   2.4360   2.4560   2.4821   2.5184   2.5381
  2.5874   2.6173   2.6291   2.6555   2.6739   2.6894   2.7141   2.7329
  2.7705   2.7884   2.8212   2.8635   2.8874   2.9372   2.9795   3.0076
  3.0755   3.1286   3.1611   3.1964   3.3590   3.4917   3.9345   3.9939
  4.0781   4.1149   4.1240   4.1570   4.1753   4.2494   4.2680   4.2843
  4.3525   4.4597   4.5153   4.5855   4.8123   5.6203
 --------------------------------------------------------------
 
          Ground-State Mulliken Net Atomic Charges

     Atom                 Charge (a.u.)
  ----------------------------------------
      1 C                    -0.368265
      2 C                    -0.107517
      3 C                     0.137538
      4 C                    -0.288519
      5 C                     0.045936
      6 C                     0.608083
      7 O                    -0.493130
      8 O                    -0.499164
      9 C                    -0.216093
     10 C                     0.258330
     11 N                    -0.837716
     12 C                     0.023698
     13 C                    -0.129349
     14 C                    -0.358746
     15 C                     0.244228
     16 F                    -0.279177
     17 H                     0.135821
     18 H                     0.153267
     19 H                     0.130741
     20 H                     0.171515
     21 H                     0.159593
     22 H                     0.173603
     23 H                     0.176153
     24 H                     0.363372
     25 H                     0.331413
     26 H                     0.150912
     27 H                     0.164325
     28 H                     0.149148
  ----------------------------------------
  Sum of atomic charges =     0.000000

 -----------------------------------------------------------------
                    Cartesian Multipole Moments
 -----------------------------------------------------------------
    Charge (ESU x 10^10)
                 0.0000
    Dipole Moment (Debye)
         X      -2.1180      Y      -3.0716      Z      -0.7656
       Tot       3.8088
    Quadrupole Moments (Debye-Ang)
        XX     -82.0207     XY       5.6678     YY     -87.0932
        XZ       0.4738     YZ       1.3363     ZZ     -93.2028
    Octopole Moments (Debye-Ang^2)
       XXX     -78.9458    XXY     -14.8761    XYY      16.7818
       YYY     -32.4929    XXZ      -6.3443    XYZ       1.8096
       YYZ      -2.7412    XZZ      -9.5846    YZZ      -2.7421
       ZZZ      -1.5634
    Hexadecapole Moments (Debye-Ang^3)
      XXXX   -2810.0981   XXXY      18.6466   XXYY    -842.9827
      XYYY      24.3425   YYYY   -1729.7453   XXXZ      -1.1136
      XXYZ      12.5888   XYYZ       4.8764   YYYZ       3.1613
      XXZZ    -558.9642   XYZZ     -23.9159   YYZZ    -342.5275
      XZZZ      -7.0943   YZZZ       1.8247   ZZZZ    -118.6686
 -----------------------------------------------------------------
Archival summary:
1\1\nia1977.scinet.local\SP\ProcedureUnspecified\6-31G*\1211212\rhickman\MonFeb712:37:402022MonFeb712:37:402022\0\\#,ProcedureUnspecified,6-31G*,\\0,1\F\C,1,1.35006\C,2,1.38735,1,116.354\C,2,1.39948,1,119.836,3,179.072,0\C,4,1.38855,2,115.291,1,179.908,0\H,5,1.08,4,119.42,2,179.934,0\C,5,1.39357,4,123.716,2,-0.732232,0\C,7,1.41274,5,119.687,4,1.22241,0\N,8,1.35532,7,122.608,5,179.64,0\H,9,1.00505,8,117.937,7,11.6438,0\H,9,1.00678,8,117.468,7,164.79,0\C,4,1.45668,2,125.958,1,-0.0375267,0\H,12,1.08332,4,112.947,2,178.51,0\C,12,1.32831,4,128.274,2,-1.68621,0\H,14,1.07446,12,123.599,4,-0.00483435,0\H,14,1.07705,12,120.451,4,-179.89,0\C,3,1.46792,2,117.78,1,0.10303,0\H,17,1.08322,3,114.625,2,-39.4307,0\C,17,1.32662,3,125.914,2,137.18,0\H,19,1.07684,17,121.096,3,-178.428,0\H,19,1.07746,17,122.517,3,-1.51804,0\C,7,1.47498,5,114.42,4,-178.388,0\O,22,1.20802,7,123.688,5,-1.19485,0\O,22,1.3563,7,115.354,5,178.291,0\C,24,1.42034,22,115.349,7,-179.945,0\H,25,1.08725,24,106.257,22,-178.522,0\H,25,1.09144,24,110.247,22,-58.5854,0\H,25,1.09176,24,110.319,22,61.4767,0\\\@

 Total job time:  49.32s(wall), 49.17s(cpu) 
 Mon Feb  7 12:37:40 2022

        *************************************************************
        *                                                           *
        *  Thank you very much for using Q-Chem.  Have a nice day.  *
        *                                                           *
        *************************************************************


