36
 energy: -61.853096092139 gnorm: 0.000154829715 xtb: 6.4.1 (23d549d)
F        -6.69975674870000    0.22589107780000   -0.09334006480000
C        -5.41134247300000   -0.02855911390000    0.12968992390000
F        -5.31531434100000   -0.98334815970000    1.04749449820000
C        -4.43037149010000    0.60467984600000   -0.49746178750000
C        -2.99661782860000    0.42472238740000   -0.34989004540000
C        -2.41862117360000   -0.48724403350000    0.53665345170000
C        -1.04800524010000   -0.60644809590000    0.63039926220000
C        -0.21192731820000    0.17654460590000   -0.16382118790000
N         1.17590822740000    0.05068280710000   -0.06975657920000
C         1.88515656830000   -1.13640696180000   -0.09778705770000
C         3.26582861220000   -0.85786352960000    0.01864083050000
C         4.18920564520000   -1.89456410190000   -0.00475939580000
C         3.72830048950000   -3.18739501970000   -0.15299663250000
C         2.36775832350000   -3.45018714580000   -0.29404698170000
C         1.43013947320000   -2.43506909860000   -0.27396785390000
C         2.07613494700000    1.09168923520000    0.06626872750000
C         3.38780539040000    0.56916067230000    0.12958677020000
C         4.47046190740000    1.42404557900000    0.28726102670000
C         4.23299527230000    2.78017960600000    0.38934006130000
C         2.93496042310000    3.28391540300000    0.35314464730000
C         1.84184004070000    2.45280177880000    0.19703218070000
C        -0.77961114660000    1.08712123440000   -1.05347685220000
C        -2.14965653560000    1.20831423400000   -1.13872629210000
H        -4.75107697940000    1.34980106920000   -1.21118308170000
H        -3.03887501350000   -1.10280837890000    1.16691633120000
H        -0.61366408930000   -1.29738469220000    1.33689883540000
H         5.24481907960000   -1.68788654570000    0.08635871670000
H         4.42906331120000   -4.00868082840000   -0.17087279870000
H         2.03749671110000   -4.46990562420000   -0.42609420630000
H         0.38026493530000   -2.64961110280000   -0.40469571960000
H         5.47467117780000    1.03070665260000    0.33387644790000
H         5.06084425740000    3.46287321150000    0.50984356940000
H         2.77809935060000    4.34774472800000    0.45363873220000
H         0.83925093930000    2.85312409440000    0.19177095930000
H        -0.13987034850000    1.68221153990000   -1.68738362200000
H        -2.57718425720000    1.91466969090000   -1.83515469220000
