
Running Job 1 of 1 fragments/B015/conf-3/spe_input.inp
qchem fragments/B015/conf-3/spe_input.inp_151755.0 /gpfs/fs0/scratch/a/aspuru/rhickman/descriptor_computation/qchem151755/ 0
/scinet/niagara/software/commercial/qc52/exe/qcprog.exe_s fragments/B015/conf-3/spe_input.inp_151755.0 /gpfs/fs0/scratch/a/aspuru/rhickman/descriptor_computation/qchem151755/
                  Welcome to Q-Chem
     A Quantum Leap Into The Future Of Chemistry


 Q-Chem 5.2, Q-Chem, Inc., Pleasanton, CA (2019)

 License issued to: SRG Alan Aspuru-Guzik, University of Toronto

 Yihan Shao,  Zhengting Gan,  E. Epifanovsky,  A. T. B. Gilbert,  M. Wormit,  
 J. Kussmann,  A. W. Lange,  A. Behn,  Jia Deng,  Xintian Feng,  D. Ghosh,  
 M. Goldey,  P. R. Horn,  L. D. Jacobson,  I. Kaliman,  T. Kus,  A. Landau,  
 Jie Liu,  E. I. Proynov,  R. M. Richard,  R. P. Steele,  E. J. Sundstrom,  
 H. L. Woodcock III,  P. M. Zimmerman,  D. Zuev,  B. Albrecht,  E. Alguire,  
 S. A. Baeppler,  D. Barton,  Z. Benda,  Y. A. Bernard,  E. J. Berquist,  
 K. B. Bravaya,  H. Burton,  D. Casanova,  Chun-Min Chang,  Yunqing Chen,  
 A. Chien,  K. D. Closser,  M. P. Coons,  S. Coriani,  S. Dasgupta,  
 A. L. Dempwolff,  M. Diedenhofen,  Hainam Do,  R. G. Edgar,  Po-Tung Fang,  
 S. Faraji,  S. Fatehi,  Qingguo Feng,  K. D. Fenk,  J. Fosso-Tande,  
 J. Gayvert,  Qinghui Ge,  A. Ghysels,  G. Gidofalvi,  J. Gomes,  
 J. Gonthier,  A. Gunina,  D. Hait,  M. W. D. Hanson-Heine,  
 P. H. P. Harbach,  A. W. Hauser,  M. F. Herbst,  J. E. Herr,  
 E. G. Hohenstein,  Z. C. Holden,  Kerwin Hui,  B. C. Huynh,  T.-C. Jagau,  
 Hyunjun Ji,  B. Kaduk,  K. Khistyaev,  Jaehoon Kim,  P. Klunzinger,  K. Koh,  
 D. Kosenkov,  L. Koulias,  T. Kowalczyk,  C. M. Krauter,  A. Kunitsa,  
 Ka Un Lao,  A. Laurent,  K. V. Lawler,  Joonho Lee,  D. Lefrancois,  
 S. Lehtola,  D. S. Levine,  Yi-Pei Li,  You-Sheng Lin,  Fenglai Liu,  
 E. Livshits,  A. Luenser,  P. Manohar,  E. Mansoor,  S. F. Manzer,  
 Shan-Ping Mao,  Yuezhi Mao,  N. Mardirossian,  A. V. Marenich,  
 T. Markovich,  L. A. Martinez-Martinez,  S. A. Maurer,  N. J. Mayhall,  
 S. C. McKenzie,  J.-M. Mewes,  P. Morgante,  A. F. Morrison,  
 J. W. Mullinax,  K. Nanda,  T. S. Nguyen-Beck,  R. Olivares-Amaya,  
 J. A. Parkhill,  Zheng Pei,  T. M. Perrine,  F. Plasser,  P. Pokhilko,  
 S. Prager,  A. Prociuk,  E. Ramos,  D. R. Rehn,  F. Rob,  M. Scheurer,  
 M. Schneider,  N. Sergueev,  S. M. Sharada,  S. Sharma,  D. W. Small,  
 T. Stauch,  T. Stein,  Yu-Chuan Su,  A. J. W. Thom,  A. Tkatchenko,  
 T. Tsuchimochi,  N. M. Tubman,  L. Vogt,  M. L. Vidal,  O. Vydrov,  
 M. A. Watson,  J. Wenzel,  M. de Wergifosse,  T. A. Wesolowski,  A. White,  
 J. Witte,  A. Yamada,  Jun Yang,  K. Yao,  S. Yeganeh,  S. R. Yost,  
 Zhi-Qiang You,  A. Zech,  Igor Ying Zhang,  Xing Zhang,  Yan Zhao,  
 Ying Zhu,  B. R. Brooks,  G. K. L. Chan,  C. J. Cramer,  M. S. Gordon,  
 W. J. Hehre,  A. Klamt,  M. W. Schmidt,  C. D. Sherrill,  D. G. Truhlar,  
 A. Aspuru-Guzik,  R. Baer,  A. T. Bell,  N. A. Besley,  Jeng-Da Chai,  
 A. E. DePrince, III,  R. A. DiStasio Jr.,  A. Dreuw,  B. D. Dunietz,  
 T. R. Furlani,  Chao-Ping Hsu,  Yousung Jung,  Jing Kong,  D. S. Lambrecht,  
 WanZhen Liang,  C. Ochsenfeld,  V. A. Rassolov,  L. V. Slipchenko,  
 J. E. Subotnik,  T. Van Voorhis,  J. M. Herbert,  A. I. Krylov,  
 P. M. W. Gill,  M. Head-Gordon

 Contributors to earlier versions of Q-Chem not listed above: 
 R. D. Adamson,  B. Austin,  J. Baker,  G. J. O. Beran,  K. Brandhorst,  
 S. T. Brown,  E. F. C. Byrd,  A. K. Chakraborty,  C.-L. Cheng,  
 Siu Hung Chien,  D. M. Chipman,  D. L. Crittenden,  H. Dachsel,  
 R. J. Doerksen,  A. D. Dutoi,  L. Fusti-Molnar,  W. A. Goddard III,  
 A. Golubeva-Zadorozhnaya,  S. R. Gwaltney,  G. Hawkins,  A. Heyden,  
 S. Hirata,  G. Kedziora,  F. J. Keil,  C. Kelley,  Jihan Kim,  R. A. King,  
 R. Z. Khaliullin,  P. P. Korambath,  W. Kurlancheek,  A. M. Lee,  M. S. Lee,  
 S. V. Levchenko,  Ching Yeh Lin,  D. Liotard,  R. C. Lochan,  I. Lotan,  
 P. E. Maslen,  N. Nair,  D. P. O'Neill,  D. Neuhauser,  E. Neuscamman,  
 C. M. Oana,  R. Olson,  B. Peters,  R. Peverati,  P. A. Pieniazek,  
 Y. M. Rhee,  J. Ritchie,  M. A. Rohrdanz,  E. Rosta,  N. J. Russ,  
 H. F. Schaefer III,  N. E. Schultz,  N. Shenvi,  A. C. Simmonett,  A. Sodt,  
 D. Stuck,  K. S. Thanthiriwatte,  V. Vanovschi,  Tao Wang,  A. Warshel,  
 C. F. Williams,  Q. Wu,  X. Xu,  W. Zhang

 Please cite Q-Chem as follows:
 Y. Shao et al., Mol. Phys. 113, 184-215 (2015)
 DOI: 10.1080/00268976.2014.952696

 Q-Chem 5.2.1 for Intel X86 EM64T Linux

 Parts of Q-Chem use Armadillo 8.300.2 (Tropical Shenanigans).
 http://arma.sourceforge.net/

 Q-Chem begins on Mon Feb  7 17:42:33 2022  

Host: 
0

     Scratch files written to /gpfs/fs0/scratch/a/aspuru/rhickman/descriptor_computation/qchem151755//
 Jul1719 |scratch|qcdevops|jenkins|workspace|build_RNUM -1
Processing $rem in /scinet/niagara/software/commercial/qc52/config/preferences:
	 MEM_TOTAL  4000 
NAlpha2: 114
NElect   114
Mult     1

Checking the input file for inconsistencies... 	...done.

--------------------------------------------------------------
User input:
--------------------------------------------------------------
$molecule
0 1
C        -1.14560521390000    2.70454992450000   -0.48752431940000
C        -0.28125763500000    2.03461514610000    0.26059351960000
C         0.13865783750000    0.66030976590000    0.02055039470000
C        -0.66261383780000   -0.37715739520000   -0.37489185060000
C        -2.09738808100000   -0.47308879710000   -0.51149860100000
C        -3.00503036570000    0.13482558210000    0.23891566330000
F        -2.78578127940000    0.96930620240000    1.24531228360000
F        -4.31601234690000   -0.01851524370000    0.07062713800000
S         0.23804698220000   -1.84943041290000   -0.69618616660000
C         1.72782724620000   -1.07160215000000   -0.25664528400000
C         2.98993476720000   -1.64591105600000   -0.24982371660000
C         4.06216973330000   -0.86406290340000    0.12585854600000
C         3.87810916870000    0.47102566290000    0.48440186990000
C         2.62519494810000    1.04155523200000    0.47367316030000
C         1.51916042280000    0.27086661030000    0.10771533260000
H        -1.39713252650000    3.72891625810000   -0.27602757190000
H        -1.62825958470000    2.25681256910000   -1.34057179570000
H         0.21135679200000    2.52485425540000    1.08994801590000
H        -2.47230771190000   -1.16938750280000   -1.24773082220000
H         3.12037076470000   -2.67854220720000   -0.53363489390000
H         5.05426471840000   -1.28901576820000    0.14017214050000
H         4.73334992670000    1.06397959840000    0.77199621520000
H         2.49223910480000    2.07729443740000    0.74592694130000
$end

$rem
BASIS = 6-31G*
GUI = 2
METHOD = B3LYP
PRINT_ORBITALS false
MOLDEN_FORMAT false
--------------------------------------------------------------
 ----------------------------------------------------------------
             Standard Nuclear Orientation (Angstroms)
    I     Atom           X                Y                Z
 ----------------------------------------------------------------
    1      C       1.6499036458    -2.2570336207    -1.0413978203
    2      C       0.6960569571    -1.9291773882    -0.1821676819
    3      C       0.0452438403    -0.6273374743    -0.1164401427
    4      C       0.6525211835     0.5926328915    -0.2492389097
    5      C       2.0478882285     0.9577944516    -0.3270155876
    6      C       3.0570768672     0.3583509127     0.2883718616
    7      F       2.9983020504    -0.7065571402     1.0756320376
    8      F       4.3202263151     0.7648434090     0.1897538389
    9      S      -0.4898907099     1.9256354608    -0.2518855978
   10      C      -1.8189952333     0.8285493777    -0.0338454156
   11      C      -3.1600256512     1.1648959396     0.0724610113
   12      C      -4.0780041099     0.1488799003     0.2371986082
   13      C      -3.6644158309    -1.1819206337     0.2901869149
   14      C      -2.3331462952    -1.5153112644     0.1807097517
   15      C      -1.3798178174    -0.5064905734     0.0237254172
   16      H       2.0749395709    -3.2451216037    -1.0601020682
   17      H       2.0362634034    -1.5533270544    -1.7601726002
   18      H       0.3067318384    -2.6699925260     0.5037267138
   19      H       2.2876995008     1.8554049043    -0.8785774876
   20      H      -3.4682662293     2.1976908858     0.0254315165
   21      H      -5.1275013897     0.3858330277     0.3235174988
   22      H      -4.4020112399    -1.9601738051     0.4167437997
   23      H      -2.0220740933    -2.5480527332     0.2158412601
 ----------------------------------------------------------------
 Molecular Point Group                 C1    NOp =  1
 Largest Abelian Subgroup              C1    NOp =  1
 Nuclear Repulsion Energy =        1038.32267941 hartrees
 There are       57 alpha and       57 beta electrons
 Requested basis set is 6-31G(d)
 There are 77 shells and 245 basis functions

 Total QAlloc Memory Limit   4000 MB
 Mega-Array Size       188 MB
 MEM_STATIC part       192 MB
 A cutoff of  1.0D-08 yielded   1928 shell pairs
 There are     21251 function pairs
 Smallest overlap matrix eigenvalue = 3.88E-04

 Scale SEOQF with 1.000000e-01/1.000000e-01/1.000000e-01

 Standard Electronic Orientation quadrupole field applied
 Nucleus-field energy     =     0.0000000382 hartrees
 Guess from superposition of atomic densities
 Warning:  Energy on first SCF cycle will be non-variational
 SAD guess density has 114.000000 electrons

 -----------------------------------------------------------------------
  General SCF calculation program by
  Eric Jon Sundstrom, Paul Horn, Yuezhi Mao, Dmitri Zuev, Alec White,
  David Stuck, Shaama M.S., Shane Yost, Joonho Lee, David Small,
  Daniel Levine, Susi Lehtola, Hugh Burton, Evgeny Epifanovsky,
  Bang C. Huynh
 -----------------------------------------------------------------------
 Exchange:     0.2000 Hartree-Fock + 0.0800 Slater + 0.7200 B88
 Correlation:  0.1900 VWN1RPA + 0.8100 LYP
 Using SG-1 standard quadrature grid
 A restricted SCF calculation will be
 performed using DIIS
 SCF converges when DIIS error is below 1.0e-05
 ---------------------------------------
  Cycle       Energy         DIIS error
 ---------------------------------------
    1   -1063.5443483978      5.12e-02  
    2   -1059.6613059589      5.59e-03  
    3   -1059.3999805899      7.93e-03  
    4   -1059.8980125523      1.32e-03  
    5   -1059.9095341188      6.34e-04  
    6   -1059.9121469284      2.71e-04  
    7   -1059.9127100687      5.66e-05  
    8   -1059.9127350644      1.72e-05  
    9   -1059.9127372480      4.77e-06  Convergence criterion met
 ---------------------------------------
 SCF time:   CPU 42.42s  wall 43.00s 
 SCF   energy in the final basis set =    -1059.9127372480
 Total energy in the final basis set =    -1059.9127372480
 
 --------------------------------------------------------------
 
                    Orbital Energies (a.u.)
 --------------------------------------------------------------
 
 Alpha MOs
 -- Occupied --
-88.9047 -24.7424 -24.7387 -10.3617 -10.2324 -10.2196 -10.2115 -10.2006
-10.1981 -10.1957 -10.1945 -10.1912 -10.1904 -10.1881 -10.1823  -7.9666
 -5.9307  -5.9273  -5.9230  -1.2866  -1.2264  -0.9023  -0.8448  -0.8000
 -0.7992  -0.7583  -0.7262  -0.7048  -0.6523  -0.6141  -0.6051  -0.5918
 -0.5736  -0.5580  -0.5211  -0.5148  -0.4962  -0.4779  -0.4652  -0.4533
 -0.4440  -0.4424  -0.4331  -0.4226  -0.4172  -0.4037  -0.3926  -0.3874
 -0.3648  -0.3471  -0.3414  -0.3373  -0.2997  -0.2815  -0.2611  -0.2284
 -0.2053
 -- Virtual --
 -0.0461  -0.0025   0.0041   0.0167   0.0321   0.0816   0.1004   0.1150
  0.1217   0.1306   0.1372   0.1513   0.1571   0.1744   0.1779   0.1884
  0.1916   0.2244   0.2329   0.2645   0.2708   0.2899   0.3109   0.3359
  0.3410   0.3486   0.3545   0.3867   0.3932   0.4186   0.4392   0.4516
  0.4771   0.5087   0.5114   0.5201   0.5332   0.5426   0.5505   0.5567
  0.5635   0.5694   0.5780   0.5866   0.5992   0.6031   0.6103   0.6134
  0.6187   0.6295   0.6466   0.6607   0.6763   0.6902   0.7003   0.7103
  0.7442   0.7649   0.7816   0.8076   0.8307   0.8364   0.8405   0.8499
  0.8554   0.8660   0.8790   0.8914   0.9058   0.9245   0.9293   0.9333
  0.9489   0.9586   0.9816   0.9879   1.0097   1.0304   1.0429   1.0549
  1.0727   1.0838   1.1041   1.1199   1.1407   1.1536   1.1892   1.2008
  1.2089   1.2478   1.2521   1.2763   1.2843   1.3326   1.3597   1.3700
  1.3815   1.3875   1.4082   1.4196   1.4353   1.4467   1.4537   1.4815
  1.4891   1.4971   1.5289   1.5528   1.5836   1.5993   1.6398   1.6804
  1.6898   1.7261   1.7491   1.7827   1.7903   1.8095   1.8265   1.8396
  1.8419   1.8624   1.8957   1.9180   1.9349   1.9438   1.9626   1.9745
  1.9903   2.0056   2.0399   2.0432   2.0731   2.0826   2.1119   2.1234
  2.1275   2.1501   2.1636   2.1859   2.2218   2.2397   2.2528   2.2783
  2.2839   2.3115   2.3363   2.3643   2.4206   2.4444   2.4938   2.5040
  2.5344   2.5482   2.5669   2.6076   2.6350   2.6710   2.6761   2.7115
  2.7327   2.7566   2.7646   2.8072   2.8561   2.9223   2.9362   3.0162
  3.0875   3.1231   3.2263   3.2802   3.4507   3.9675   4.0895   4.0950
  4.1066   4.1243   4.1511   4.1790   4.2573   4.3293   4.3397   4.4118
  4.5939   4.7353   4.7803   5.2798
 --------------------------------------------------------------
 
          Ground-State Mulliken Net Atomic Charges

     Atom                 Charge (a.u.)
  ----------------------------------------
      1 C                    -0.332205
      2 C                    -0.122127
      3 C                     0.130686
      4 C                    -0.205585
      5 C                    -0.300729
      6 C                     0.576787
      7 F                    -0.224668
      8 F                    -0.243503
      9 S                     0.223402
     10 C                    -0.138138
     11 C                    -0.178772
     12 C                    -0.116816
     13 C                    -0.142342
     14 C                    -0.174047
     15 C                     0.111173
     16 H                     0.144763
     17 H                     0.149505
     18 H                     0.138525
     19 H                     0.173452
     20 H                     0.139633
     21 H                     0.130646
     22 H                     0.129770
     23 H                     0.130591
  ----------------------------------------
  Sum of atomic charges =     0.000000

 -----------------------------------------------------------------
                    Cartesian Multipole Moments
 -----------------------------------------------------------------
    Charge (ESU x 10^10)
                 0.0000
    Dipole Moment (Debye)
         X      -0.7228      Y      -0.3656      Z      -0.3032
       Tot       0.8649
    Quadrupole Moments (Debye-Ang)
        XX     -85.7719     XY       0.0927     YY     -84.7034
        XZ      -3.2639     YZ      -1.1980     ZZ     -93.5135
    Octopole Moments (Debye-Ang^2)
       XXX       4.7067    XXY       3.4568    XYY      14.4846
       YYY      -7.9622    XXZ       0.8844    XYZ       2.7399
       YYZ       3.4529    XZZ      29.6273    YZZ       1.4248
       ZZZ       9.9571
    Hexadecapole Moments (Debye-Ang^3)
      XXXX   -3190.8500   XXXY      -9.7230   XXYY    -674.5802
      XYYY      -0.9383   YYYY   -1029.5857   XXXZ      -7.3203
      XXYZ      -2.2547   XYYZ      -4.0271   YYYZ     -16.8191
      XXZZ    -606.7480   XYZZ       2.6662   YYZZ    -222.5927
      XZZZ      35.3423   YZZZ      -6.5436   ZZZZ    -207.2450
 -----------------------------------------------------------------
Archival summary:
1\1\nia1977.scinet.local\SP\ProcedureUnspecified\6-31G*\12128\rhickman\MonFeb717:43:192022MonFeb717:43:192022\0\\#,ProcedureUnspecified,6-31G*,\\0,1\S\C,1,1.73714\C,2,1.38665,1,126.611\H,3,1.07884,2,120.344,1,-0.232078,0\C,3,1.37917,2,118.305,1,179.71,0\H,5,1.07937,3,119.67,2,179.928,0\C,5,1.39459,3,120.673,2,-0.226493,0\H,7,1.0797,5,119.32,3,-179.813,0\C,7,1.37674,5,120.986,3,0.0442697,0\H,9,1.07915,7,120.524,5,-179.573,0\C,9,1.39685,7,119.603,5,0.461439,0\C,11,1.43703,9,128.831,7,-179.588,0\C,12,1.36921,11,111.985,9,-179.969,0\C,13,1.44445,12,131.218,11,175.426,0\H,14,1.08048,13,116.866,12,151.621,0\C,14,1.32533,13,126.601,12,-33.5658,0\F,16,1.32562,14,127.253,13,1.37557,0\F,16,1.3306,14,123.386,13,-178.753,0\C,12,1.45694,11,121.502,9,3.39327,0\H,19,1.08205,12,114.989,11,-41.1643,0\C,19,1.32499,12,124.885,11,135.53,0\H,21,1.07579,19,121.532,12,-178.281,0\H,21,1.07755,19,121.944,12,1.34816,0\\\@

 Total job time:  45.81s(wall), 42.62s(cpu) 
 Mon Feb  7 17:43:19 2022

        *************************************************************
        *                                                           *
        *  Thank you very much for using Q-Chem.  Have a nice day.  *
        *                                                           *
        *************************************************************


