
Running Job 1 of 1 tidas/B034/conf-0/spe_input.inp
qchem tidas/B034/conf-0/spe_input.inp_246823.0 /home/a/aspuru/seifridm/acdc_laser/descriptor_computation/qchem246823/ 0
/gpfs/fs1/scinet/niagara/software/commercial/qc54/exe/qcprog.exe_s tidas/B034/conf-0/spe_input.inp_246823.0 /home/a/aspuru/seifridm/acdc_laser/descriptor_computation/qchem246823/
                  Welcome to Q-Chem
     A Quantum Leap Into The Future Of Chemistry


 Q-Chem 5.4, Q-Chem, Inc., Pleasanton, CA (2021)

 License issued to: SRG Alan Aspuru-Guzik, University of Toronto

 E. Epifanovsky,  A. T. B. Gilbert,  Xintian Feng,  Joonho Lee,  Yuezhi Mao,  
 N. Mardirossian,  P. Pokhilko,  A. White,  M. Wormit,  M. P. Coons,  
 A. L. Dempwolff,  Zhengting Gan,  D. Hait,  P. R. Horn,  L. D. Jacobson,  
 I. Kaliman,  J. Kussmann,  A. W. Lange,  Ka Un Lao,  D. S. Levine,  Jie Liu,  
 S. C. McKenzie,  A. F. Morrison,  K. Nanda,  F. Plasser,  D. R. Rehn,  
 M. L. Vidal,  Zhi-Qiang You,  Ying Zhu,  B. Alam,  B. Albrecht,  
 A. Aldossary,  E. Alguire,  J. H. Andersen,  D. Barton,  K. Begam,  A. Behn,  
 Y. A. Bernard,  E. J. Berquist,  H. Burton,  A. Carreras,  K. Carter-Fenk,  
 Romit Chakraborty,  A. D. Chien,  K. D. Closser,  V. Cofer-Shabica,  
 S. Dasgupta,  Jia Deng,  M. de Wergifosse,  M. Diedenhofen,  Hainam Do,  
 S. Ehlert,  Po-Tung Fang,  S. Fatehi,  Qingguo Feng,  T. Friedhoff,  
 J. Gayvert,  Qinghui Ge,  G. Gidofalvi,  M. Goldey,  J. Gomes,  
 C. Gonzalez-Espinoza,  S. Gulania,  A. Gunina,  M. W. D. Hanson-Heine,  
 P. H. P. Harbach,  A. W. Hauser,  M. F. Herbst,  M. Hernandez Vera,  
 M. Hodecker,  Z. C. Holden,  S. Houck,  Xunkun Huang,  Kerwin Hui,  
 B. C. Huynh,  M. Ivanov,  Hyunjun Ji,  Hanjie Jiang,  B. Kaduk,  S. Kaehler,  
 K. Khistyaev,  Jaehoon Kim,  P. Klunzinger,  Z. Koczor-Benda,  
 Joong Hoon Koh,  D. Kosenkov,  L. Koulias,  T. Kowalczyk,  C. M. Krauter,  
 K. Kue,  A. Kunitsa,  T. Kus,  A. Landau,  K. V. Lawler,  D. Lefrancois,  
 S. Lehtola,  Rain Li,  Yi-Pei Li,  Jiashu Liang,  M. Liebenthal,  
 Hung-Hsuan Lin,  You-Sheng Lin,  Fenglai Liu,  Kuan-Yu Liu,  
 M. Loipersberger,  A. Luenser,  A. Manjanath,  P. Manohar,  E. Mansoor,  
 S. F. Manzer,  Shan-Ping Mao,  A. V. Marenich,  T. Markovich,  S. Mason,  
 S. A. Maurer,  P. F. McLaughlin,  M. F. S. J. Menger,  J.-M. Mewes,  
 S. A. Mewes,  P. Morgante,  J. W. Mullinax,  K. J. Oosterbaan,  G. Paran,  
 Alexander C. Paul,  Suranjan K. Paul,  F. Pavosevic,  Zheng Pei,  S. Prager,  
 E. I. Proynov,  E. Ramos,  B. Rana,  A. E. Rask,  A. Rettig,  R. M. Richard,  
 F. Rob,  E. Rossomme,  T. Scheele,  M. Scheurer,  M. Schneider,  
 N. Sergueev,  S. M. Sharada,  W. Skomorowski,  D. W. Small,  C. J. Stein,  
 Yu-Chuan Su,  E. J. Sundstrom,  Zhen Tao,  J. Thirman,  T. Tsuchimochi,  
 N. M. Tubman,  S. P. Veccham,  O. Vydrov,  J. Wenzel,  J. Witte,  A. Yamada,  
 Kun Yao,  S. Yeganeh,  S. R. Yost,  A. Zech,  Igor Ying Zhang,  Xing Zhang,  
 Yu Zhang,  D. Zuev,  A. Aspuru-Guzik,  A. T. Bell,  N. A. Besley,  
 K. B. Bravaya,  B. R. Brooks,  D. Casanova,  Jeng-Da Chai,  S. Coriani,  
 C. J. Cramer,  A. E. DePrince, III,  R. A. DiStasio Jr.,  A. Dreuw,  
 B. D. Dunietz,  T. R. Furlani,  W. A. Goddard III,  S. Grimme,  
 S. Hammes-Schiffer,  T. Head-Gordon,  W. J. Hehre,  Chao-Ping Hsu,  
 T.-C. Jagau,  Yousung Jung,  A. Klamt,  Jing Kong,  D. S. Lambrecht,  
 WanZhen Liang,  N. J. Mayhall,  C. W. McCurdy,  J. B. Neaton,  T. Neudecker,  
 C. Ochsenfeld,  J. A. Parkhill,  R. Peverati,  V. A. Rassolov,  Yihan Shao,  
 L. V. Slipchenko,  R. P. Steele,  J. E. Subotnik,  A. J. W. Thom,  
 A. Tkatchenko,  D. G. Truhlar,  T. Van Voorhis,  T. A. Wesolowski,  
 K. B. Whaley,  H. L. Woodcock III,  P. M. Zimmerman,  S. Faraji,  
 P. M. W. Gill,  M. Head-Gordon,  J. M. Herbert,  A. I. Krylov

 Additional authors since Version 5.4.0: 
 Chandrima Chakravarty,  L. Cunha,  R. Kang,  Yongbin Kim,  S. Kotaru,  
 Shaozhi Li,  Xiangyuan Li,  F. Matz,  A. Molle,  V. Parravicini,  
 Haisheng Ren,  Hengyuan Shen,  Yingli Su,  Hung-Yi Tsai,  C. Utku,  
 Fang Wang,  Jeff Yang,  F. Zeller

 Contributors to earlier versions of Q-Chem not listed above: 
 R. D. Adamson,  B. Austin,  R. Baer,  J. Baker,  G. J. O. Beran,  
 K. Brandhorst,  S. T. Brown,  E. F. C. Byrd,  Arup K. Chakraborty,  
 G. K. L. Chan,  Chun-Min Chang,  Yunqing Chen,  C.-L. Cheng,  
 Siu Hung Chien,  D. M. Chipman,  D. L. Crittenden,  H. Dachsel,  
 R. J. Doerksen,  A. D. Dutoi,  R. G. Edgar,  J. Fosso-Tande,  
 L. Fusti-Molnar,  D. Ghosh,  A. Ghysels,  A. Golubeva-Zadorozhnaya,  
 J. Gonthier,  M. S. Gordon,  S. R. Gwaltney,  G. Hawkins,  J. E. Herr,  
 A. Heyden,  S. Hirata,  E. G. Hohenstein,  G. Kedziora,  F. J. Keil,  
 C. Kelley,  Jihan Kim,  R. A. King,  R. Z. Khaliullin,  P. P. Korambath,  
 W. Kurlancheek,  A. Laurent,  A. M. Lee,  M. S. Lee,  S. V. Levchenko,  
 Ching Yeh Lin,  D. Liotard,  E. Livshits,  R. C. Lochan,  I. Lotan,  
 L. A. Martinez-Martinez,  P. E. Maslen,  N. Nair,  D. P. O'Neill,  
 D. Neuhauser,  E. Neuscamman,  C. M. Oana,  R. Olivares-Amaya,  R. Olson,  
 T. M. Perrine,  B. Peters,  P. A. Pieniazek,  A. Prociuk,  Y. M. Rhee,  
 J. Ritchie,  M. A. Rohrdanz,  E. Rosta,  N. J. Russ,  H. F. Schaefer III,  
 M. W. Schmidt,  N. E. Schultz,  S. Sharma,  N. Shenvi,  C. D. Sherrill,  
 A. C. Simmonett,  A. Sodt,  T. Stein,  D. Stuck,  K. S. Thanthiriwatte,  
 V. Vanovschi,  L. Vogt,  Tao Wang,  A. Warshel,  M. A. Watson,  
 C. F. Williams,  Q. Wu,  X. Xu,  Jun Yang,  W. Zhang,  Yan Zhao

   Please cite Q-Chem as follows:
  "Software for the frontiers of quantum chemistry:
   An overview of developments in the Q-Chem 5 package"
   J. Chem. Phys. 155, 084801 (2021)
   https://doi.org/10.1063/5.0055522 (open access)

 Q-Chem 5.4.2 for Intel X86 EM64T Linux

 Parts of Q-Chem use Armadillo 9.900.5 (Nocturnal Misbehaviour).
 http://arma.sourceforge.net/

 Q-Chem begins on Fri Aug 12 12:44:30 2022  

 Host: 
0

     Scratch files written to /home/a/aspuru/seifridm/acdc_laser/descriptor_computation/qchem246823//
 Dec1321 |scratch|qcdevops|jenkins|workspace|build_RNUM 6959   
 Processing $rem in /gpfs/fs1/scinet/niagara/software/commercial/qc54/config/preferences:
 Processing $rem in /home/a/aspuru/seifridm/.qchemrc:

 Checking the input file for inconsistencies... 	...done.

--------------------------------------------------------------
User input:
--------------------------------------------------------------
$molecule
0 1
C           -4.52256794850000       -1.31596419330000       -0.03730849020000
C           -3.82320595870000       -0.18737016870000       -0.06994173230000
C           -2.37475198840000       -0.05872639170000        0.00805531440000
C           -1.51591706360000       -1.14565002060000        0.17471831320000
C           -0.15296421170000       -0.95904776800000        0.23835644590000
C            0.41249295400000        0.31415285220000        0.13901360400000
C            1.85233317470000        0.51467036280000        0.22134443910000
C            2.80420724430000       -0.37807771240000       -0.00362603510000
F            2.67034862020000       -1.64525710290000       -0.37911812240000
F            4.10416836410000       -0.09810545800000        0.10570101110000
C           -0.43803883640000        1.42090854310000       -0.02275328540000
C            0.10309429840000        2.81443949460000       -0.14448529480000
C           -1.80404812480000        1.21135948270000       -0.08552801180000
H           -5.59697926230000       -1.30951973910000       -0.10382553520000
H           -4.06326192990000       -2.28505603620000        0.05390244470000
H           -4.35273330200000        0.75289341810000       -0.16784021690000
H           -1.91391787540000       -2.14413918770000        0.26006217710000
H            0.48510586470000       -1.81613146640000        0.38218437500000
H            2.20737674520000        1.49857410960000        0.48676417670000
H            0.60314423000000        3.11694652790000        0.77558264600000
H           -0.70320375850000        3.51760638050000       -0.33669885370000
H            0.82032732260000        2.88281477570000       -0.96087177620000
H           -2.45612583410000        2.06463793710000       -0.21488882270000
$end

$rem
BASIS = 6-31G*
GUI = 2
METHOD = B3LYP
PRINT_ORBITALS false
MOLDEN_FORMAT false
$end
--------------------------------------------------------------
 ----------------------------------------------------------------
             Standard Nuclear Orientation (Angstroms)
    I     Atom           X                Y                Z
 ----------------------------------------------------------------
    1      C       4.4386517609    -1.2548602584     0.0422079140
    2      C       3.7132740673    -0.1425739587     0.0655099065
    3      C       2.2620489939    -0.0484315970    -0.0102176770
    4      C       1.4283903410    -1.1566246851    -0.1641601601
    5      C       0.0613250998    -1.0024122936    -0.2263039765
    6      C      -0.5334044889     0.2582049724    -0.1380347831
    7      C      -1.9777012770     0.4243559288    -0.2188193570
    8      C      -2.9080317765    -0.4880389619     0.0171802393
    9      F      -2.7438763290    -1.7480102282     0.4047127460
   10      F      -4.2143973055    -0.2394700489    -0.0917159476
   11      C       0.2914807269     1.3859825337     0.0108382007
   12      C      -0.2816839913     2.7676776149     0.1202601946
   13      C       1.6621339744     1.2088932656     0.0723354961
   14      H       5.5127657117    -1.2227712515     0.1060454881
   15      H       4.0018353434    -2.2352237993    -0.0384096917
   16      H       4.2209785960     0.8106697273     0.1529256938
   17      H       1.8493436721    -2.1463758880    -0.2407087558
   18      H      -0.5569305146    -1.8754789117    -0.3601958633
   19      H      -2.3561425848     1.3970784484    -0.4929784957
   20      H      -0.7906687405     3.0494139326    -0.8015015031
   21      H       0.5084441285     3.4912653327     0.3036304405
   22      H      -0.9985135920     2.8273700171     0.9376813943
   23      H       2.2944501081     2.0783395202     0.1917641214
 ----------------------------------------------------------------
 Molecular Point Group                 C1    NOp =  1
 Largest Abelian Subgroup              C1    NOp =  1
 Nuclear Repulsion Energy =         732.83613145 hartrees
 There are       47 alpha and       47 beta electrons
 Requested basis set is 6-31G(d)
 There are 72 shells and 215 basis functions

 Total QAlloc Memory Limit   8000 MB
 Mega-Array Size       188 MB
 MEM_STATIC part       192 MB
 A cutoff of  1.0D-08 yielded   1757 shell pairs
 There are     16573 function pairs
 Smallest overlap matrix eigenvalue = 3.27E-04

 Scale SEOQF with 1.000000e-02/1.000000e-01/1.000000e+00

 Standard Electronic Orientation quadrupole field applied
 Nucleus-field energy     =     0.0000000095 hartrees
 Guess from superposition of atomic densities
 Warning:  Energy on first SCF cycle will be non-variational
 SAD guess density has 94.000000 electrons

 -----------------------------------------------------------------------
  General SCF calculation program by
  Eric Jon Sundstrom, Paul Horn, Yuezhi Mao, Dmitri Zuev, Alec White,
  David Stuck, Shaama M.S., Shane Yost, Joonho Lee, David Small,
  Daniel Levine, Susi Lehtola, Hugh Burton, Evgeny Epifanovsky,
  Bang C. Huynh
 -----------------------------------------------------------------------
 Exchange:     0.2000 Hartree-Fock + 0.0800 Slater + 0.7200 B88
 Correlation:  0.1900 VWN1RPA + 0.8100 LYP
 Using SG-1 standard quadrature grid
 A restricted SCF calculation will be
 performed using DIIS
 SCF converges when DIIS error is below 1.0e-05
 ---------------------------------------
  Cycle       Energy         DIIS error
 ---------------------------------------
    1    -627.7068542501      5.42e-02  
    2    -624.5943019821      6.22e-03  
    3    -624.4136489674      8.30e-03  
    4    -624.8168326946      1.56e-03  
    5    -624.8306688900      4.35e-04  
    6    -624.8313697196      2.49e-04  
    7    -624.8317518951      5.41e-05  
    8    -624.8317683792      1.76e-05  
    9    -624.8317699993      5.81e-06  Convergence criterion met
 ---------------------------------------
 SCF time:   CPU 45.48s  wall 49.00s 
 SCF   energy in the final basis set =     -624.8317699993
 Total energy in the final basis set =     -624.8317699993
 
 --------------------------------------------------------------
 
                    Orbital Energies (a.u.)
 --------------------------------------------------------------
 
 Alpha MOs
 -- Occupied --
-24.7429 -24.7331 -10.3562 -10.2017 -10.2013 -10.1966 -10.1926 -10.1891
-10.1858 -10.1853 -10.1841 -10.1839 -10.1788  -1.2837  -1.2229  -0.8718
 -0.8172  -0.7840  -0.7667  -0.7251  -0.6904  -0.6458  -0.6119  -0.6080
 -0.5729  -0.5453  -0.5284  -0.5180  -0.5016  -0.4715  -0.4568  -0.4411
 -0.4363  -0.4344  -0.4285  -0.4196  -0.4086  -0.4054  -0.3930  -0.3704
 -0.3691  -0.3421  -0.3360  -0.3161  -0.2659  -0.2473  -0.2079
 -- Virtual --
 -0.0423   0.0034   0.0267   0.0888   0.0905   0.1076   0.1137   0.1347
  0.1396   0.1495   0.1557   0.1689   0.1878   0.1945   0.2121   0.2144
  0.2343   0.2464   0.2852   0.3144   0.3301   0.3398   0.3755   0.3944
  0.4094   0.4427   0.4755   0.4987   0.5023   0.5156   0.5186   0.5382
  0.5494   0.5576   0.5695   0.5762   0.5835   0.5916   0.6033   0.6075
  0.6151   0.6161   0.6360   0.6420   0.6672   0.6784   0.6972   0.7193
  0.7418   0.7562   0.7739   0.7918   0.8038   0.8265   0.8338   0.8485
  0.8601   0.8813   0.8920   0.9023   0.9269   0.9490   0.9600   0.9732
  0.9815   1.0109   1.0145   1.0223   1.0689   1.0886   1.1135   1.1298
  1.1446   1.1720   1.1891   1.1916   1.2152   1.2467   1.2566   1.2621
  1.3178   1.3232   1.3342   1.3622   1.3842   1.4088   1.4204   1.4493
  1.4529   1.4747   1.4841   1.4912   1.5030   1.5192   1.5505   1.5806
  1.6788   1.6899   1.7332   1.7667   1.7821   1.7961   1.8111   1.8214
  1.8409   1.8527   1.8537   1.8988   1.9050   1.9182   1.9520   1.9728
  1.9867   1.9912   2.0060   2.0267   2.0317   2.0527   2.0757   2.1006
  2.1324   2.1636   2.1684   2.2033   2.2216   2.2410   2.2496   2.2522
  2.2900   2.3366   2.3412   2.3618   2.3845   2.4166   2.4654   2.5152
  2.5215   2.5436   2.5853   2.6341   2.6462   2.6685   2.6932   2.7199
  2.7886   2.8140   2.8718   2.9202   2.9575   2.9976   3.0385   3.1387
  3.1861   3.3097   3.4782   4.0860   4.0948   4.1110   4.1278   4.1538
  4.2209   4.2566   4.3255   4.3821   4.5257   4.7374   4.8084   5.2673
 --------------------------------------------------------------
 
          Ground-State Mulliken Net Atomic Charges

     Atom                 Charge (a.u.)
  ----------------------------------------
      1 C                    -0.354325
      2 C                    -0.114247
      3 C                     0.197294
      4 C                    -0.192051
      5 C                    -0.194143
      6 C                     0.135881
      7 C                    -0.310962
      8 C                     0.550611
      9 F                    -0.234747
     10 F                    -0.249991
     11 C                     0.133278
     12 C                    -0.538537
     13 C                    -0.276854
     14 H                     0.143815
     15 H                     0.142961
     16 H                     0.125848
     17 H                     0.126441
     18 H                     0.135999
     19 H                     0.161451
     20 H                     0.163911
     21 H                     0.160279
     22 H                     0.167353
     23 H                     0.120736
  ----------------------------------------
  Sum of atomic charges =     0.000000

 -----------------------------------------------------------------
                    Cartesian Multipole Moments
 -----------------------------------------------------------------
    Charge (ESU x 10^10)
                 0.0000
    Dipole Moment (Debye)
         X       0.6010      Y       1.0187      Z      -0.1573
       Tot       1.1932
    Quadrupole Moments (Debye-Ang)
        XX     -73.9661     XY      -1.6864     YY     -67.8090
        XZ       0.8389     YZ       0.7336     ZZ     -76.9099
    Octopole Moments (Debye-Ang^2)
       XXX     -15.8361    XXY       0.4752    XYY     -10.2907
       YYY     -13.0100    XXZ       2.1257    XYZ       1.1539
       YYZ      -0.9245    XZZ     -27.9413    YZZ      -3.6917
       ZZZ       3.6449
    Hexadecapole Moments (Debye-Ang^3)
      XXXX   -2843.0640   XXXY      26.3448   XXYY    -593.2768
      XYYY      35.0652   YYYY    -828.1722   XXXZ       4.4497
      XXYZ       2.1682   XYYZ       2.4963   YYYZ      -1.8423
      XXZZ    -521.5680   XYZZ      19.7157   YYZZ    -160.6995
      XZZZ      -8.1460   YZZZ      -6.6916   ZZZZ     -94.1984
 -----------------------------------------------------------------
 Total job time:  50.32s(wall), 45.93s(cpu) 
 Fri Aug 12 12:45:20 2022

        *************************************************************
        *                                                           *
        *  Thank you very much for using Q-Chem.  Have a nice day.  *
        *                                                           *
        *************************************************************


