
Running Job 1 of 1 fragments/C022/conf-1/spe_input.inp
qchem fragments/C022/conf-1/spe_input.inp_338812.0 /gpfs/fs0/scratch/a/aspuru/rhickman/descriptor_computation/qchem338812/ 0
/scinet/niagara/software/commercial/qc52/exe/qcprog.exe_s fragments/C022/conf-1/spe_input.inp_338812.0 /gpfs/fs0/scratch/a/aspuru/rhickman/descriptor_computation/qchem338812/
                  Welcome to Q-Chem
     A Quantum Leap Into The Future Of Chemistry


 Q-Chem 5.2, Q-Chem, Inc., Pleasanton, CA (2019)

 License issued to: SRG Alan Aspuru-Guzik, University of Toronto

 Yihan Shao,  Zhengting Gan,  E. Epifanovsky,  A. T. B. Gilbert,  M. Wormit,  
 J. Kussmann,  A. W. Lange,  A. Behn,  Jia Deng,  Xintian Feng,  D. Ghosh,  
 M. Goldey,  P. R. Horn,  L. D. Jacobson,  I. Kaliman,  T. Kus,  A. Landau,  
 Jie Liu,  E. I. Proynov,  R. M. Richard,  R. P. Steele,  E. J. Sundstrom,  
 H. L. Woodcock III,  P. M. Zimmerman,  D. Zuev,  B. Albrecht,  E. Alguire,  
 S. A. Baeppler,  D. Barton,  Z. Benda,  Y. A. Bernard,  E. J. Berquist,  
 K. B. Bravaya,  H. Burton,  D. Casanova,  Chun-Min Chang,  Yunqing Chen,  
 A. Chien,  K. D. Closser,  M. P. Coons,  S. Coriani,  S. Dasgupta,  
 A. L. Dempwolff,  M. Diedenhofen,  Hainam Do,  R. G. Edgar,  Po-Tung Fang,  
 S. Faraji,  S. Fatehi,  Qingguo Feng,  K. D. Fenk,  J. Fosso-Tande,  
 J. Gayvert,  Qinghui Ge,  A. Ghysels,  G. Gidofalvi,  J. Gomes,  
 J. Gonthier,  A. Gunina,  D. Hait,  M. W. D. Hanson-Heine,  
 P. H. P. Harbach,  A. W. Hauser,  M. F. Herbst,  J. E. Herr,  
 E. G. Hohenstein,  Z. C. Holden,  Kerwin Hui,  B. C. Huynh,  T.-C. Jagau,  
 Hyunjun Ji,  B. Kaduk,  K. Khistyaev,  Jaehoon Kim,  P. Klunzinger,  K. Koh,  
 D. Kosenkov,  L. Koulias,  T. Kowalczyk,  C. M. Krauter,  A. Kunitsa,  
 Ka Un Lao,  A. Laurent,  K. V. Lawler,  Joonho Lee,  D. Lefrancois,  
 S. Lehtola,  D. S. Levine,  Yi-Pei Li,  You-Sheng Lin,  Fenglai Liu,  
 E. Livshits,  A. Luenser,  P. Manohar,  E. Mansoor,  S. F. Manzer,  
 Shan-Ping Mao,  Yuezhi Mao,  N. Mardirossian,  A. V. Marenich,  
 T. Markovich,  L. A. Martinez-Martinez,  S. A. Maurer,  N. J. Mayhall,  
 S. C. McKenzie,  J.-M. Mewes,  P. Morgante,  A. F. Morrison,  
 J. W. Mullinax,  K. Nanda,  T. S. Nguyen-Beck,  R. Olivares-Amaya,  
 J. A. Parkhill,  Zheng Pei,  T. M. Perrine,  F. Plasser,  P. Pokhilko,  
 S. Prager,  A. Prociuk,  E. Ramos,  D. R. Rehn,  F. Rob,  M. Scheurer,  
 M. Schneider,  N. Sergueev,  S. M. Sharada,  S. Sharma,  D. W. Small,  
 T. Stauch,  T. Stein,  Yu-Chuan Su,  A. J. W. Thom,  A. Tkatchenko,  
 T. Tsuchimochi,  N. M. Tubman,  L. Vogt,  M. L. Vidal,  O. Vydrov,  
 M. A. Watson,  J. Wenzel,  M. de Wergifosse,  T. A. Wesolowski,  A. White,  
 J. Witte,  A. Yamada,  Jun Yang,  K. Yao,  S. Yeganeh,  S. R. Yost,  
 Zhi-Qiang You,  A. Zech,  Igor Ying Zhang,  Xing Zhang,  Yan Zhao,  
 Ying Zhu,  B. R. Brooks,  G. K. L. Chan,  C. J. Cramer,  M. S. Gordon,  
 W. J. Hehre,  A. Klamt,  M. W. Schmidt,  C. D. Sherrill,  D. G. Truhlar,  
 A. Aspuru-Guzik,  R. Baer,  A. T. Bell,  N. A. Besley,  Jeng-Da Chai,  
 A. E. DePrince, III,  R. A. DiStasio Jr.,  A. Dreuw,  B. D. Dunietz,  
 T. R. Furlani,  Chao-Ping Hsu,  Yousung Jung,  Jing Kong,  D. S. Lambrecht,  
 WanZhen Liang,  C. Ochsenfeld,  V. A. Rassolov,  L. V. Slipchenko,  
 J. E. Subotnik,  T. Van Voorhis,  J. M. Herbert,  A. I. Krylov,  
 P. M. W. Gill,  M. Head-Gordon

 Contributors to earlier versions of Q-Chem not listed above: 
 R. D. Adamson,  B. Austin,  J. Baker,  G. J. O. Beran,  K. Brandhorst,  
 S. T. Brown,  E. F. C. Byrd,  A. K. Chakraborty,  C.-L. Cheng,  
 Siu Hung Chien,  D. M. Chipman,  D. L. Crittenden,  H. Dachsel,  
 R. J. Doerksen,  A. D. Dutoi,  L. Fusti-Molnar,  W. A. Goddard III,  
 A. Golubeva-Zadorozhnaya,  S. R. Gwaltney,  G. Hawkins,  A. Heyden,  
 S. Hirata,  G. Kedziora,  F. J. Keil,  C. Kelley,  Jihan Kim,  R. A. King,  
 R. Z. Khaliullin,  P. P. Korambath,  W. Kurlancheek,  A. M. Lee,  M. S. Lee,  
 S. V. Levchenko,  Ching Yeh Lin,  D. Liotard,  R. C. Lochan,  I. Lotan,  
 P. E. Maslen,  N. Nair,  D. P. O'Neill,  D. Neuhauser,  E. Neuscamman,  
 C. M. Oana,  R. Olson,  B. Peters,  R. Peverati,  P. A. Pieniazek,  
 Y. M. Rhee,  J. Ritchie,  M. A. Rohrdanz,  E. Rosta,  N. J. Russ,  
 H. F. Schaefer III,  N. E. Schultz,  N. Shenvi,  A. C. Simmonett,  A. Sodt,  
 D. Stuck,  K. S. Thanthiriwatte,  V. Vanovschi,  Tao Wang,  A. Warshel,  
 C. F. Williams,  Q. Wu,  X. Xu,  W. Zhang

 Please cite Q-Chem as follows:
 Y. Shao et al., Mol. Phys. 113, 184-215 (2015)
 DOI: 10.1080/00268976.2014.952696

 Q-Chem 5.2.1 for Intel X86 EM64T Linux

 Parts of Q-Chem use Armadillo 8.300.2 (Tropical Shenanigans).
 http://arma.sourceforge.net/

 Q-Chem begins on Tue Feb  8 15:30:28 2022  

Host: 
0

     Scratch files written to /gpfs/fs0/scratch/a/aspuru/rhickman/descriptor_computation/qchem338812//
 Jul1719 |scratch|qcdevops|jenkins|workspace|build_RNUM -1
Processing $rem in /scinet/niagara/software/commercial/qc52/config/preferences:
	 MEM_TOTAL  4000 
NAlpha2: 92
NElect   92
Mult     1

Checking the input file for inconsistencies... 	...done.

--------------------------------------------------------------
User input:
--------------------------------------------------------------
$molecule
0 1
C         4.29489318510000   -0.83323073170000    0.06622634980000
C         3.29790948290000    0.04304026760000    0.10288883790000
C         1.87507500300000   -0.25885572450000    0.02213081330000
C         1.36314438070000   -1.55909313190000   -0.05520335730000
C         0.00778657460000   -1.78850467800000   -0.13825705330000
C        -0.92302631940000   -0.74556455430000   -0.13428928080000
C        -2.34604536210000   -1.03370406970000   -0.27597857090000
C        -2.94376942600000   -2.08126390590000    0.27642138120000
C        -0.40519375770000    0.55535604140000   -0.04504322690000
N        -1.26613260590000    1.70606412470000    0.01485284840000
O        -2.41331492680000    1.55167169850000    0.38039533000000
O        -0.78594669540000    2.77794633790000   -0.29458337550000
C         0.96116731900000    0.78955891910000    0.02452404530000
H         5.31999268150000   -0.51232538860000    0.13066903640000
H         4.14029681580000   -1.89403428660000   -0.03148184580000
H         3.52655013640000    1.09703975190000    0.19599119530000
H         2.03745570690000   -2.40083726170000   -0.05568089220000
H        -0.35688901690000   -2.80030408960000   -0.22837722870000
H        -2.92732080810000   -0.33260919860000   -0.85859970150000
H        -2.41801776680000   -2.77118930800000    0.91579039690000
H        -3.99449274520000   -2.26389328080000    0.13668419150000
H         1.30037584010000    1.81322053150000    0.09235968930000
$end

$rem
BASIS = 6-31G*
GUI = 2
METHOD = B3LYP
PRINT_ORBITALS false
MOLDEN_FORMAT false
--------------------------------------------------------------
 ----------------------------------------------------------------
             Standard Nuclear Orientation (Angstroms)
    I     Atom           X                Y                Z
 ----------------------------------------------------------------
    1      C       4.3234357646    -0.2399517293     0.0678219921
    2      C       3.2243876541     0.5038693234     0.1124873808
    3      C       1.8507600580     0.0270452081     0.0235660884
    4      C       1.5060291093    -1.3260060679    -0.0717421955
    5      C       0.1902595264    -1.7224346670    -0.1618372953
    6      C      -0.8639922926    -0.8045557676    -0.1475573569
    7      C      -2.2394392341    -1.2669697955    -0.2972317002
    8      C      -2.7018888349    -2.3882419544     0.2400675519
    9      C      -0.5135090223     0.5497594163    -0.0403114881
   10      N      -1.5120336556     1.5825850660     0.0314664138
   11      O      -2.6313319483     1.2808859040     0.3915143995
   12      O      -1.1695982678     2.7101142357    -0.2629427249
   13      C       0.8125957994     0.9524946677     0.0363925166
   14      H       5.3001083167     0.2060775730     0.1394506459
   15      H       4.3032235757    -1.3104171231    -0.0437415283
   16      H       3.3189195114     1.5769271184     0.2195864322
   17      H       2.2805698676    -2.0764953294    -0.0807785077
   18      H      -0.0445294538    -2.7707217731    -0.2658385472
   19      H      -2.9031920173    -0.6368185646    -0.8727351435
   20      H      -2.0947048103    -3.0150061174     0.8722849593
   21      H      -3.7212125829    -2.6993384293     0.0948176143
   22      H       1.0206637436     2.0096442641     0.1181828181
 ----------------------------------------------------------------
 Molecular Point Group                 C1    NOp =  1
 Largest Abelian Subgroup              C1    NOp =  1
 Nuclear Repulsion Energy =         735.61065802 hartrees
 There are       46 alpha and       46 beta electrons
 Requested basis set is 6-31G(d)
 There are 70 shells and 213 basis functions

 Total QAlloc Memory Limit   4000 MB
 Mega-Array Size       188 MB
 MEM_STATIC part       192 MB
 A cutoff of  1.0D-08 yielded   1685 shell pairs
 There are     16981 function pairs
 Smallest overlap matrix eigenvalue = 3.32E-04

 Scale SEOQF with 1.000000e-02/1.000000e-01/1.000000e+00

 Standard Electronic Orientation quadrupole field applied
 Nucleus-field energy     =     0.0000000116 hartrees
 Guess from superposition of atomic densities
 Warning:  Energy on first SCF cycle will be non-variational
 SAD guess density has 92.000000 electrons

 -----------------------------------------------------------------------
  General SCF calculation program by
  Eric Jon Sundstrom, Paul Horn, Yuezhi Mao, Dmitri Zuev, Alec White,
  David Stuck, Shaama M.S., Shane Yost, Joonho Lee, David Small,
  Daniel Levine, Susi Lehtola, Hugh Burton, Evgeny Epifanovsky,
  Bang C. Huynh
 -----------------------------------------------------------------------
 Exchange:     0.2000 Hartree-Fock + 0.0800 Slater + 0.7200 B88
 Correlation:  0.1900 VWN1RPA + 0.8100 LYP
 Using SG-1 standard quadrature grid
 A restricted SCF calculation will be
 performed using DIIS
 SCF converges when DIIS error is below 1.0e-05
 ---------------------------------------
  Cycle       Energy         DIIS error
 ---------------------------------------
    1    -594.6968610783      5.65e-02  
    2    -591.2513042664      7.69e-03  
    3    -590.8568497344      1.27e-02  
    4    -591.5197866517      1.82e-03  
    5    -591.5364502561      6.82e-04  
    6    -591.5385535144      3.49e-04  
    7    -591.5391319630      1.26e-04  
    8    -591.5391952942      4.69e-05  
    9    -591.5392054996      1.15e-05  
   10    -591.5392061519      2.80e-06  Convergence criterion met
 ---------------------------------------
 SCF time:   CPU 33.22s  wall 34.00s 
 SCF   energy in the final basis set =     -591.5392061519
 Total energy in the final basis set =     -591.5392061519
 
 --------------------------------------------------------------
 
                    Orbital Energies (a.u.)
 --------------------------------------------------------------
 
 Alpha MOs
 -- Occupied --
-19.1779 -19.1759 -14.5714 -10.2505 -10.2289 -10.2191 -10.2152 -10.2144
-10.2115 -10.2060 -10.2017 -10.1959 -10.1907  -1.2399  -1.0608  -0.9020
 -0.8344  -0.8121  -0.7807  -0.7425  -0.7038  -0.6510  -0.6231  -0.5874
 -0.5714  -0.5441  -0.5347  -0.5175  -0.5126  -0.4860  -0.4819  -0.4562
 -0.4413  -0.4358  -0.4062  -0.3995  -0.3906  -0.3673  -0.3614  -0.3362
 -0.3094  -0.3081  -0.2934  -0.2820  -0.2721  -0.2344
 -- Virtual --
 -0.0854  -0.0530  -0.0067   0.0124   0.0653   0.0905   0.0996   0.1170
  0.1284   0.1391   0.1647   0.1719   0.1853   0.1925   0.2031   0.2267
  0.2479   0.2759   0.2865   0.3068   0.3173   0.3397   0.3526   0.3587
  0.3988   0.4200   0.4568   0.4809   0.4933   0.5114   0.5180   0.5249
  0.5474   0.5545   0.5547   0.5709   0.5828   0.5856   0.5971   0.6063
  0.6163   0.6190   0.6414   0.6676   0.6752   0.6816   0.6875   0.6946
  0.7219   0.7656   0.7768   0.7883   0.7984   0.8150   0.8297   0.8496
  0.8520   0.8626   0.8700   0.8782   0.8980   0.9309   0.9380   0.9448
  0.9546   0.9656   0.9752   0.9974   1.0044   1.0124   1.0342   1.0567
  1.0631   1.1009   1.1244   1.1351   1.1653   1.1785   1.2068   1.2459
  1.2544   1.2779   1.2921   1.3076   1.3317   1.3766   1.4082   1.4338
  1.4414   1.4620   1.4847   1.4966   1.5106   1.5310   1.5385   1.5863
  1.6602   1.6663   1.6760   1.7197   1.7399   1.7564   1.7951   1.8181
  1.8287   1.8488   1.8652   1.8952   1.9279   1.9372   1.9568   1.9766
  1.9924   2.0001   2.0148   2.0216   2.0502   2.0994   2.1092   2.1330
  2.1387   2.1546   2.1825   2.2130   2.2361   2.2633   2.2715   2.2843
  2.3168   2.3559   2.3735   2.4109   2.4799   2.5057   2.5292   2.5688
  2.5962   2.6144   2.6416   2.6464   2.6839   2.7031   2.7452   2.7596
  2.8528   2.8609   2.8981   2.9070   2.9660   3.0085   3.0894   3.1126
  3.2840   3.4518   3.7419   3.9339   3.9638   4.0704   4.1060   4.1234
  4.1279   4.1549   4.2308   4.3247   4.3592   4.4986   4.7637
 --------------------------------------------------------------
 
          Ground-State Mulliken Net Atomic Charges

     Atom                 Charge (a.u.)
  ----------------------------------------
      1 C                    -0.351560
      2 C                    -0.108527
      3 C                     0.174221
      4 C                    -0.162374
      5 C                    -0.195348
      6 C                     0.139792
      7 C                    -0.087459
      8 C                    -0.342092
      9 C                     0.222997
     10 N                     0.367386
     11 O                    -0.398436
     12 O                    -0.396436
     13 C                    -0.230061
     14 H                     0.154179
     15 H                     0.147023
     16 H                     0.139403
     17 H                     0.141044
     18 H                     0.147015
     19 H                     0.160370
     20 H                     0.146021
     21 H                     0.153946
     22 H                     0.178894
  ----------------------------------------
  Sum of atomic charges =     0.000000

 -----------------------------------------------------------------
                    Cartesian Multipole Moments
 -----------------------------------------------------------------
    Charge (ESU x 10^10)
                 0.0000
    Dipole Moment (Debye)
         X       2.8955      Y      -3.2108      Z      -0.1941
       Tot       4.3279
    Quadrupole Moments (Debye-Ang)
        XX     -71.0850     XY       6.3830     YY     -74.6281
        XZ       2.2525     YZ       0.3352     ZZ     -76.5119
    Octopole Moments (Debye-Ang^2)
       XXX      18.9384    XXY     -13.3488    XYY      11.0601
       YYY     -15.1830    XXZ      -6.3579    XYZ       3.6596
       YYZ       6.6799    XZZ     -12.5468    YZZ       9.2595
       ZZZ       0.6021
    Hexadecapole Moments (Debye-Ang^3)
      XXXX   -2128.8493   XXXY      32.4537   XXYY    -528.7404
      XYYY      15.5132   YYYY   -1054.0900   XXXZ      27.9490
      XXYZ      -1.6072   XYYZ      -9.2248   YYYZ      -1.4542
      XXZZ    -425.1253   XYZZ     -13.9837   YYZZ    -190.8011
      XZZZ      -3.0050   YZZZ      -1.9983   ZZZZ     -95.1867
 -----------------------------------------------------------------
Archival summary:
1\1\nia2015.scinet.local\SP\ProcedureUnspecified\6-31G*\21109\rhickman\TueFeb815:31:022022TueFeb815:31:022022\0\\#,ProcedureUnspecified,6-31G*,\\0,1\N\O,1,1.21387\O,1,1.2146,2,124.235\C,1,1.43838,2,118.454,3,179.238,0\C,4,1.38803,1,116.881,2,-156.886,0\H,5,1.08053,4,118.166,1,-1.59265,0\C,5,1.39083,4,121.303,1,177.725,0\C,7,1.39953,5,117.391,4,0.0940773,0\H,8,1.07853,7,119.763,5,-179.748,0\C,8,1.37714,7,121.205,5,0.593906,0\H,10,1.07928,8,119.587,7,178.063,0\C,10,1.39791,8,122.064,7,-0.749851,0\C,7,1.45675,5,119.044,4,-179.732,0\H,13,1.08252,7,114.383,5,2.10002,0\C,13,1.32784,7,126.517,5,-177.549,0\H,15,1.07609,13,121.118,7,179.839,0\H,15,1.07645,13,123.025,7,0.0512372,0\C,12,1.4588,10,120.125,8,177.64,0\H,18,1.08114,12,116.662,10,-142.724,0\C,18,1.32658,12,123.715,10,38.0537,0\H,20,1.07559,18,121.342,12,-179.222,0\H,20,1.07759,18,122.196,12,3.14392,0\\\@

 Total job time:  33.52s(wall), 33.40s(cpu) 
 Tue Feb  8 15:31:02 2022

        *************************************************************
        *                                                           *
        *  Thank you very much for using Q-Chem.  Have a nice day.  *
        *                                                           *
        *************************************************************


