
Running Job 1 of 1 fragments/C086/conf-9/spe_input.inp
qchem fragments/C086/conf-9/spe_input.inp_116120.0 /gpfs/fs0/scratch/a/aspuru/rhickman/descriptor_computation/qchem116120/ 0
/scinet/niagara/software/commercial/qc52/exe/qcprog.exe_s fragments/C086/conf-9/spe_input.inp_116120.0 /gpfs/fs0/scratch/a/aspuru/rhickman/descriptor_computation/qchem116120/
                  Welcome to Q-Chem
     A Quantum Leap Into The Future Of Chemistry


 Q-Chem 5.2, Q-Chem, Inc., Pleasanton, CA (2019)

 License issued to: SRG Alan Aspuru-Guzik, University of Toronto

 Yihan Shao,  Zhengting Gan,  E. Epifanovsky,  A. T. B. Gilbert,  M. Wormit,  
 J. Kussmann,  A. W. Lange,  A. Behn,  Jia Deng,  Xintian Feng,  D. Ghosh,  
 M. Goldey,  P. R. Horn,  L. D. Jacobson,  I. Kaliman,  T. Kus,  A. Landau,  
 Jie Liu,  E. I. Proynov,  R. M. Richard,  R. P. Steele,  E. J. Sundstrom,  
 H. L. Woodcock III,  P. M. Zimmerman,  D. Zuev,  B. Albrecht,  E. Alguire,  
 S. A. Baeppler,  D. Barton,  Z. Benda,  Y. A. Bernard,  E. J. Berquist,  
 K. B. Bravaya,  H. Burton,  D. Casanova,  Chun-Min Chang,  Yunqing Chen,  
 A. Chien,  K. D. Closser,  M. P. Coons,  S. Coriani,  S. Dasgupta,  
 A. L. Dempwolff,  M. Diedenhofen,  Hainam Do,  R. G. Edgar,  Po-Tung Fang,  
 S. Faraji,  S. Fatehi,  Qingguo Feng,  K. D. Fenk,  J. Fosso-Tande,  
 J. Gayvert,  Qinghui Ge,  A. Ghysels,  G. Gidofalvi,  J. Gomes,  
 J. Gonthier,  A. Gunina,  D. Hait,  M. W. D. Hanson-Heine,  
 P. H. P. Harbach,  A. W. Hauser,  M. F. Herbst,  J. E. Herr,  
 E. G. Hohenstein,  Z. C. Holden,  Kerwin Hui,  B. C. Huynh,  T.-C. Jagau,  
 Hyunjun Ji,  B. Kaduk,  K. Khistyaev,  Jaehoon Kim,  P. Klunzinger,  K. Koh,  
 D. Kosenkov,  L. Koulias,  T. Kowalczyk,  C. M. Krauter,  A. Kunitsa,  
 Ka Un Lao,  A. Laurent,  K. V. Lawler,  Joonho Lee,  D. Lefrancois,  
 S. Lehtola,  D. S. Levine,  Yi-Pei Li,  You-Sheng Lin,  Fenglai Liu,  
 E. Livshits,  A. Luenser,  P. Manohar,  E. Mansoor,  S. F. Manzer,  
 Shan-Ping Mao,  Yuezhi Mao,  N. Mardirossian,  A. V. Marenich,  
 T. Markovich,  L. A. Martinez-Martinez,  S. A. Maurer,  N. J. Mayhall,  
 S. C. McKenzie,  J.-M. Mewes,  P. Morgante,  A. F. Morrison,  
 J. W. Mullinax,  K. Nanda,  T. S. Nguyen-Beck,  R. Olivares-Amaya,  
 J. A. Parkhill,  Zheng Pei,  T. M. Perrine,  F. Plasser,  P. Pokhilko,  
 S. Prager,  A. Prociuk,  E. Ramos,  D. R. Rehn,  F. Rob,  M. Scheurer,  
 M. Schneider,  N. Sergueev,  S. M. Sharada,  S. Sharma,  D. W. Small,  
 T. Stauch,  T. Stein,  Yu-Chuan Su,  A. J. W. Thom,  A. Tkatchenko,  
 T. Tsuchimochi,  N. M. Tubman,  L. Vogt,  M. L. Vidal,  O. Vydrov,  
 M. A. Watson,  J. Wenzel,  M. de Wergifosse,  T. A. Wesolowski,  A. White,  
 J. Witte,  A. Yamada,  Jun Yang,  K. Yao,  S. Yeganeh,  S. R. Yost,  
 Zhi-Qiang You,  A. Zech,  Igor Ying Zhang,  Xing Zhang,  Yan Zhao,  
 Ying Zhu,  B. R. Brooks,  G. K. L. Chan,  C. J. Cramer,  M. S. Gordon,  
 W. J. Hehre,  A. Klamt,  M. W. Schmidt,  C. D. Sherrill,  D. G. Truhlar,  
 A. Aspuru-Guzik,  R. Baer,  A. T. Bell,  N. A. Besley,  Jeng-Da Chai,  
 A. E. DePrince, III,  R. A. DiStasio Jr.,  A. Dreuw,  B. D. Dunietz,  
 T. R. Furlani,  Chao-Ping Hsu,  Yousung Jung,  Jing Kong,  D. S. Lambrecht,  
 WanZhen Liang,  C. Ochsenfeld,  V. A. Rassolov,  L. V. Slipchenko,  
 J. E. Subotnik,  T. Van Voorhis,  J. M. Herbert,  A. I. Krylov,  
 P. M. W. Gill,  M. Head-Gordon

 Contributors to earlier versions of Q-Chem not listed above: 
 R. D. Adamson,  B. Austin,  J. Baker,  G. J. O. Beran,  K. Brandhorst,  
 S. T. Brown,  E. F. C. Byrd,  A. K. Chakraborty,  C.-L. Cheng,  
 Siu Hung Chien,  D. M. Chipman,  D. L. Crittenden,  H. Dachsel,  
 R. J. Doerksen,  A. D. Dutoi,  L. Fusti-Molnar,  W. A. Goddard III,  
 A. Golubeva-Zadorozhnaya,  S. R. Gwaltney,  G. Hawkins,  A. Heyden,  
 S. Hirata,  G. Kedziora,  F. J. Keil,  C. Kelley,  Jihan Kim,  R. A. King,  
 R. Z. Khaliullin,  P. P. Korambath,  W. Kurlancheek,  A. M. Lee,  M. S. Lee,  
 S. V. Levchenko,  Ching Yeh Lin,  D. Liotard,  R. C. Lochan,  I. Lotan,  
 P. E. Maslen,  N. Nair,  D. P. O'Neill,  D. Neuhauser,  E. Neuscamman,  
 C. M. Oana,  R. Olson,  B. Peters,  R. Peverati,  P. A. Pieniazek,  
 Y. M. Rhee,  J. Ritchie,  M. A. Rohrdanz,  E. Rosta,  N. J. Russ,  
 H. F. Schaefer III,  N. E. Schultz,  N. Shenvi,  A. C. Simmonett,  A. Sodt,  
 D. Stuck,  K. S. Thanthiriwatte,  V. Vanovschi,  Tao Wang,  A. Warshel,  
 C. F. Williams,  Q. Wu,  X. Xu,  W. Zhang

 Please cite Q-Chem as follows:
 Y. Shao et al., Mol. Phys. 113, 184-215 (2015)
 DOI: 10.1080/00268976.2014.952696

 Q-Chem 5.2.1 for Intel X86 EM64T Linux

 Parts of Q-Chem use Armadillo 8.300.2 (Tropical Shenanigans).
 http://arma.sourceforge.net/

 Q-Chem begins on Mon Feb  7 15:47:19 2022  

Host: 
0

     Scratch files written to /gpfs/fs0/scratch/a/aspuru/rhickman/descriptor_computation/qchem116120//
 Jul1719 |scratch|qcdevops|jenkins|workspace|build_RNUM -1
Processing $rem in /scinet/niagara/software/commercial/qc52/config/preferences:
	 MEM_TOTAL  4000 
NAlpha2: 120
NElect   120
Mult     1

Checking the input file for inconsistencies... 	...done.

--------------------------------------------------------------
User input:
--------------------------------------------------------------
$molecule
0 1
C        -4.15551821300000   -2.60671118210000    0.27478867870000
C        -2.84189099170000   -2.41559133850000    0.18937113070000
C        -2.20012292160000   -1.13628714660000    0.06835848510000
C        -0.85300311380000   -0.89473626970000   -0.02085950180000
C        -0.50704013050000    0.46531125730000   -0.13922418170000
C         0.90358806050000    0.96963477720000   -0.20162920020000
C         1.94073416020000   -0.01461426740000    0.33850442620000
C         3.32595727950000    0.62610921000000    0.39381269880000
C         4.38414420840000   -0.27068439400000    1.03857515860000
C         4.66287239600000   -1.57994191610000    0.29800988370000
C         5.19993151420000   -1.37189098730000   -1.11316366920000
C        -1.62021276760000    1.28177934960000   -0.14763271050000
C        -1.76965294420000    2.71036754150000   -0.24888509370000
C        -0.88987725440000    3.58818324850000   -0.72585233760000
S        -3.08642252410000    0.35274572430000    0.01513695430000
H        -4.58024915350000   -3.59059543350000    0.36495444330000
H        -4.84425412510000   -1.77816425240000    0.25675557540000
H        -2.16313311000000   -3.25926861550000    0.20803653560000
H        -0.13366488820000   -1.69343914380000    0.00073366600000
H         0.96170242890000    1.89846157540000    0.37316876780000
H         1.15328002990000    1.21054864210000   -1.24056918720000
H         1.97551514230000   -0.89443114100000   -0.30448046530000
H         1.65017630400000   -0.33393449630000    1.34219169580000
H         3.26376765620000    1.54891543760000    0.97713889910000
H         3.63979586270000    0.90136235230000   -0.61470815140000
H         4.06684758510000   -0.50893052480000    2.05708063660000
H         5.31741454490000    0.29388822230000    1.10894029970000
H         3.75469071410000   -2.18360393750000    0.25722639300000
H         5.39973723800000   -2.14368571370000    0.87562540200000
H         4.45077635580000   -0.91587047630000   -1.75518595760000
H         5.48439022680000   -2.32550209890000   -1.55259664020000
H         6.07679132800000   -0.72799894730000   -1.09511376380000
H        -2.73517955720000    3.07184631620000    0.08552367060000
H         0.06600484860000    3.30629390220000   -1.12632185680000
H        -1.12426682360000    4.63862096440000   -0.74962515440000
$end

$rem
BASIS = 6-31G*
GUI = 2
METHOD = B3LYP
PRINT_ORBITALS false
MOLDEN_FORMAT false
--------------------------------------------------------------
 ----------------------------------------------------------------
             Standard Nuclear Orientation (Angstroms)
    I     Atom           X                Y                Z
 ----------------------------------------------------------------
    1      C       4.1375832764     2.8380015953     0.0300934637
    2      C       2.8368076900     2.5679107505    -0.0367888067
    3      C       2.2664757260     1.2496351770    -0.0360856147
    4      C       0.9350309444     0.9272193962    -0.1019742322
    5      C       0.6644536599    -0.4548433285    -0.0910007569
    6      C      -0.7161953874    -1.0394046421    -0.1053105826
    7      C      -1.8083015944    -0.0668573389     0.3392322434
    8      C      -3.1567432998    -0.7744774965     0.4550223525
    9      C      -4.2656229920     0.1198778780     1.0120064336
   10      C      -4.6115976485     1.3359793248     0.1507977502
   11      C      -5.1292175936     0.9662869240    -1.2343107665
   12      C       1.8205715467    -1.2061676269    -0.0220993807
   13      C       2.0483058786    -2.6275742797     0.0123801051
   14      C       1.2202384845    -3.5934773611    -0.3792818151
   15      S       3.2330132379    -0.1869028951     0.0519030936
   16      H       4.5074928527     3.8478083173     0.0266661172
   17      H       4.8706122222     2.0504846253     0.0905744589
   18      H       2.1129124225     3.3710743889    -0.0980735412
   19      H       0.1730568011     1.6837295347    -0.1560837876
   20      H      -0.7264727209    -1.9115018285     0.5548636965
   21      H      -0.9470045551    -1.3908066798    -1.1167578637
   22      H      -1.8877526262     0.7449816849    -0.3841777036
   23      H      -1.5407871636     0.3613889518     1.3081587397
   24      H      -3.0472703359    -1.6331863068     1.1231115592
   25      H      -3.4498844663    -1.1606545210    -0.5228880811
   26      H      -3.9670599526     0.4704033941     2.0033609357
   27      H      -5.1670272687    -0.4858388710     1.1355562741
   28      H      -3.7375308911     1.9819725259     0.0529959905
   29      H      -5.3811091091     1.9105527192     0.6724624684
   30      H      -4.3529838337     0.4933752392    -1.8302943778
   31      H      -5.4630485305     1.8570328306    -1.7620615437
   32      H      -5.9696960125     0.2798728517    -1.1553320354
   33      H       3.0303920944    -2.9023169046     0.3794780776
   34      H       0.2524680633    -3.4035648280    -0.8046071916
   35      H       1.5117490596    -4.6270146343    -0.3034840497
 ----------------------------------------------------------------
 Molecular Point Group                 C1    NOp =  1
 Largest Abelian Subgroup              C1    NOp =  1
 Nuclear Repulsion Energy =        1041.50460915 hartrees
 There are       60 alpha and       60 beta electrons
 Requested basis set is 6-31G(d)
 There are 101 shells and 269 basis functions

 Total QAlloc Memory Limit   4000 MB
 Mega-Array Size       188 MB
 MEM_STATIC part       192 MB
 A cutoff of  1.0D-08 yielded   2864 shell pairs
 There are     21663 function pairs
 Smallest overlap matrix eigenvalue = 6.60E-04

 Scale SEOQF with 1.000000e-02/1.000000e-01/1.000000e-01

 Standard Electronic Orientation quadrupole field applied
 Nucleus-field energy     =     0.0000000254 hartrees
 Guess from superposition of atomic densities
 Warning:  Energy on first SCF cycle will be non-variational
 SAD guess density has 120.000000 electrons

 -----------------------------------------------------------------------
  General SCF calculation program by
  Eric Jon Sundstrom, Paul Horn, Yuezhi Mao, Dmitri Zuev, Alec White,
  David Stuck, Shaama M.S., Shane Yost, Joonho Lee, David Small,
  Daniel Levine, Susi Lehtola, Hugh Burton, Evgeny Epifanovsky,
  Bang C. Huynh
 -----------------------------------------------------------------------
 Exchange:     0.2000 Hartree-Fock + 0.0800 Slater + 0.7200 B88
 Correlation:  0.1900 VWN1RPA + 0.8100 LYP
 Using SG-1 standard quadrature grid
 A restricted SCF calculation will be
 performed using DIIS
 SCF converges when DIIS error is below 1.0e-05
 ---------------------------------------
  Cycle       Energy         DIIS error
 ---------------------------------------
    1    -946.8434777430      4.82e-02  
    2    -943.3760710506      5.52e-03  
    3    -943.2722085452      6.38e-03  
    4    -943.6679992849      1.18e-03  
    5    -943.6812081724      4.68e-04  
    6    -943.6832200549      1.29e-04  
    7    -943.6833675864      4.75e-05  
    8    -943.6833877238      1.66e-05  
    9    -943.6833902289      2.97e-06  Convergence criterion met
 ---------------------------------------
 SCF time:   CPU 53.13s  wall 53.00s 
 SCF   energy in the final basis set =     -943.6833902289
 Total energy in the final basis set =     -943.6833902289
 
 --------------------------------------------------------------
 
                    Orbital Energies (a.u.)
 --------------------------------------------------------------
 
 Alpha MOs
 -- Occupied --
-88.8975 -10.2138 -10.2121 -10.1965 -10.1957 -10.1920 -10.1864 -10.1849
-10.1800 -10.1799 -10.1794 -10.1762 -10.1760 -10.1747 -10.1696  -7.9596
 -5.9235  -5.9200  -5.9166  -0.8877  -0.8163  -0.8037  -0.7822  -0.7670
 -0.7372  -0.7120  -0.6894  -0.6449  -0.6204  -0.6125  -0.5758  -0.5548
 -0.5312  -0.5171  -0.4931  -0.4813  -0.4612  -0.4559  -0.4457  -0.4377
 -0.4225  -0.4091  -0.4064  -0.3992  -0.3900  -0.3754  -0.3732  -0.3693
 -0.3618  -0.3521  -0.3445  -0.3359  -0.3324  -0.3188  -0.3149  -0.3130
 -0.3068  -0.2683  -0.2440  -0.1957
 -- Virtual --
 -0.0476   0.0150   0.0300   0.0725   0.0768   0.0927   0.1008   0.1139
  0.1172   0.1257   0.1313   0.1336   0.1410   0.1478   0.1636   0.1649
  0.1689   0.1784   0.1814   0.1860   0.1919   0.2053   0.2118   0.2131
  0.2156   0.2265   0.2331   0.2393   0.2506   0.2591   0.2638   0.2812
  0.2987   0.3089   0.3258   0.3495   0.3605   0.3645   0.3672   0.3962
  0.4465   0.4681   0.4828   0.4931   0.5009   0.5130   0.5223   0.5348
  0.5386   0.5409   0.5509   0.5731   0.5752   0.5835   0.5930   0.6047
  0.6140   0.6187   0.6252   0.6351   0.6395   0.6454   0.6727   0.6753
  0.6784   0.6900   0.6994   0.7084   0.7154   0.7368   0.7528   0.7588
  0.7931   0.8221   0.8248   0.8287   0.8362   0.8501   0.8567   0.8598
  0.8649   0.8714   0.8735   0.8774   0.8829   0.8909   0.8948   0.9050
  0.9139   0.9334   0.9403   0.9481   0.9559   0.9659   0.9793   0.9811
  0.9885   0.9914   1.0002   1.0034   1.0184   1.0309   1.0404   1.0453
  1.0651   1.0789   1.1003   1.1082   1.1337   1.1532   1.1846   1.2150
  1.2489   1.2628   1.2784   1.2915   1.3413   1.3595   1.3751   1.4187
  1.4341   1.4519   1.4587   1.4750   1.4896   1.5050   1.5532   1.5647
  1.6000   1.6180   1.6288   1.6553   1.6650   1.7084   1.7138   1.7457
  1.7673   1.7903   1.8349   1.8470   1.8693   1.8864   1.9144   1.9331
  1.9403   1.9538   1.9710   1.9835   1.9993   2.0114   2.0182   2.0275
  2.0396   2.0545   2.0635   2.0825   2.1036   2.1311   2.1503   2.1617
  2.1873   2.2060   2.2174   2.2444   2.2686   2.2990   2.3174   2.3373
  2.3449   2.3587   2.3684   2.3811   2.4052   2.4219   2.4519   2.4587
  2.4817   2.4923   2.5369   2.5683   2.5775   2.6083   2.6453   2.6845
  2.7081   2.7149   2.7547   2.7708   2.8532   2.8886   2.9345   3.0172
  3.1273   3.2205   3.9731   4.0926   4.1171   4.1291   4.1505   4.1637
  4.2205   4.2363   4.3068   4.3464   4.4098   4.4790   4.5263   4.5409
  4.6729
 --------------------------------------------------------------
 
          Ground-State Mulliken Net Atomic Charges

     Atom                 Charge (a.u.)
  ----------------------------------------
      1 C                    -0.375236
      2 C                    -0.054999
      3 C                    -0.138973
      4 C                    -0.183871
      5 C                     0.181011
      6 C                    -0.348938
      7 C                    -0.270374
      8 C                    -0.258279
      9 C                    -0.252216
     10 C                    -0.252514
     11 C                    -0.445127
     12 C                    -0.195742
     13 C                    -0.095981
     14 C                    -0.349404
     15 S                     0.230773
     16 H                     0.145445
     17 H                     0.155174
     18 H                     0.135875
     19 H                     0.136283
     20 H                     0.155127
     21 H                     0.152317
     22 H                     0.141137
     23 H                     0.140619
     24 H                     0.130679
     25 H                     0.133342
     26 H                     0.127813
     27 H                     0.127184
     28 H                     0.133256
     29 H                     0.131913
     30 H                     0.145434
     31 H                     0.143534
     32 H                     0.142959
     33 H                     0.137410
     34 H                     0.150704
     35 H                     0.143666
  ----------------------------------------
  Sum of atomic charges =     0.000000

 -----------------------------------------------------------------
                    Cartesian Multipole Moments
 -----------------------------------------------------------------
    Charge (ESU x 10^10)
                -0.0000
    Dipole Moment (Debye)
         X      -1.2852      Y       0.1475      Z       0.0126
       Tot       1.2937
    Quadrupole Moments (Debye-Ang)
        XX     -98.7354     XY       0.3125     YY     -93.2541
        XZ       0.9855     YZ      -0.2479     ZZ    -103.5728
    Octopole Moments (Debye-Ang^2)
       XXX       5.4338    XXY       2.6158    XYY      14.2498
       YYY       0.8830    XXZ       5.8760    XYZ      -2.5392
       YYZ      -1.3185    XZZ     -10.4408    YZZ      -1.5358
       ZZZ       1.8535
    Hexadecapole Moments (Debye-Ang^3)
      XXXX   -5658.5353   XXXY      26.6073   XXYY   -1207.0518
      XYYY       9.3112   YYYY   -1720.2521   XXXZ       4.3342
      XXYZ      -7.7586   XYYZ      10.3937   YYYZ      -0.8184
      XXZZ   -1055.6895   XYZZ      -8.8911   YYZZ    -381.9864
      XZZZ      -2.0133   YZZZ      -0.9661   ZZZZ    -297.0417
 -----------------------------------------------------------------
Archival summary:
1\1\nia1977.scinet.local\SP\ProcedureUnspecified\6-31G*\11420\rhickman\MonFeb715:48:132022MonFeb715:48:132022\0\\#,ProcedureUnspecified,6-31G*,\\0,1\S\C,1,1.73366\C,2,1.37151,1,110.418\H,3,1.0751,2,121.671,1,179.611,0\C,3,1.40834,2,114.635,1,-0.325417,0\C,5,1.38052,3,111.936,2,-0.330354,0\C,2,1.43636,1,122.626,3,-179.974,0\H,7,1.08298,2,114.536,1,179.883,0\C,7,1.3302,2,125.072,1,-0.105043,0\H,9,1.07543,7,121.793,2,-179.944,0\H,9,1.07758,7,121.308,2,0.0451718,0\C,6,1.43995,5,132.134,3,-179.933,0\H,12,1.08385,6,113.681,5,-161.551,0\C,12,1.33119,6,127.649,5,20.3493,0\H,14,1.07403,12,123.279,6,1.45884,0\H,14,1.07653,12,120.495,6,179.86,0\C,5,1.49937,3,124.017,2,177.726,0\H,17,1.09384,5,108.284,3,-141.205,0\H,17,1.09535,5,109.143,3,102.139,0\C,17,1.52845,5,114.022,3,-19.7337,0\H,20,1.09028,17,109.444,5,65.8496,0\H,20,1.0926,17,109.413,5,-52.6996,0\C,20,1.52723,17,110.984,5,-173.399,0\H,23,1.0915,20,109.459,17,-62.0146,0\H,23,1.09348,20,108.771,17,54.8659,0\C,23,1.52961,20,113.377,17,175.048,0\H,26,1.09302,23,108.361,20,-175.501,0\H,26,1.09307,23,108.647,20,-59.0072,0\C,26,1.5298,23,115.072,20,62.8451,0\H,29,1.09127,26,109.87,23,-61.1374,0\H,29,1.09289,26,107.966,23,-177.723,0\C,29,1.52418,26,113.302,23,61.7178,0\H,32,1.08691,29,111.18,26,-66.4898,0\H,32,1.08784,29,110.272,26,173.718,0\H,32,1.08803,29,110.45,26,53.9943,0\\\@

 Total job time:  53.52s(wall), 53.36s(cpu) 
 Mon Feb  7 15:48:13 2022

        *************************************************************
        *                                                           *
        *  Thank you very much for using Q-Chem.  Have a nice day.  *
        *                                                           *
        *************************************************************


