
Running Job 1 of 1 fragments/A030/conf-6/spe_input.inp
qchem fragments/A030/conf-6/spe_input.inp_90678.0 /gpfs/fs0/scratch/a/aspuru/rhickman/descriptor_computation/qchem90678/ 0
/scinet/niagara/software/commercial/qc52/exe/qcprog.exe_s fragments/A030/conf-6/spe_input.inp_90678.0 /gpfs/fs0/scratch/a/aspuru/rhickman/descriptor_computation/qchem90678/
                  Welcome to Q-Chem
     A Quantum Leap Into The Future Of Chemistry


 Q-Chem 5.2, Q-Chem, Inc., Pleasanton, CA (2019)

 License issued to: SRG Alan Aspuru-Guzik, University of Toronto

 Yihan Shao,  Zhengting Gan,  E. Epifanovsky,  A. T. B. Gilbert,  M. Wormit,  
 J. Kussmann,  A. W. Lange,  A. Behn,  Jia Deng,  Xintian Feng,  D. Ghosh,  
 M. Goldey,  P. R. Horn,  L. D. Jacobson,  I. Kaliman,  T. Kus,  A. Landau,  
 Jie Liu,  E. I. Proynov,  R. M. Richard,  R. P. Steele,  E. J. Sundstrom,  
 H. L. Woodcock III,  P. M. Zimmerman,  D. Zuev,  B. Albrecht,  E. Alguire,  
 S. A. Baeppler,  D. Barton,  Z. Benda,  Y. A. Bernard,  E. J. Berquist,  
 K. B. Bravaya,  H. Burton,  D. Casanova,  Chun-Min Chang,  Yunqing Chen,  
 A. Chien,  K. D. Closser,  M. P. Coons,  S. Coriani,  S. Dasgupta,  
 A. L. Dempwolff,  M. Diedenhofen,  Hainam Do,  R. G. Edgar,  Po-Tung Fang,  
 S. Faraji,  S. Fatehi,  Qingguo Feng,  K. D. Fenk,  J. Fosso-Tande,  
 J. Gayvert,  Qinghui Ge,  A. Ghysels,  G. Gidofalvi,  J. Gomes,  
 J. Gonthier,  A. Gunina,  D. Hait,  M. W. D. Hanson-Heine,  
 P. H. P. Harbach,  A. W. Hauser,  M. F. Herbst,  J. E. Herr,  
 E. G. Hohenstein,  Z. C. Holden,  Kerwin Hui,  B. C. Huynh,  T.-C. Jagau,  
 Hyunjun Ji,  B. Kaduk,  K. Khistyaev,  Jaehoon Kim,  P. Klunzinger,  K. Koh,  
 D. Kosenkov,  L. Koulias,  T. Kowalczyk,  C. M. Krauter,  A. Kunitsa,  
 Ka Un Lao,  A. Laurent,  K. V. Lawler,  Joonho Lee,  D. Lefrancois,  
 S. Lehtola,  D. S. Levine,  Yi-Pei Li,  You-Sheng Lin,  Fenglai Liu,  
 E. Livshits,  A. Luenser,  P. Manohar,  E. Mansoor,  S. F. Manzer,  
 Shan-Ping Mao,  Yuezhi Mao,  N. Mardirossian,  A. V. Marenich,  
 T. Markovich,  L. A. Martinez-Martinez,  S. A. Maurer,  N. J. Mayhall,  
 S. C. McKenzie,  J.-M. Mewes,  P. Morgante,  A. F. Morrison,  
 J. W. Mullinax,  K. Nanda,  T. S. Nguyen-Beck,  R. Olivares-Amaya,  
 J. A. Parkhill,  Zheng Pei,  T. M. Perrine,  F. Plasser,  P. Pokhilko,  
 S. Prager,  A. Prociuk,  E. Ramos,  D. R. Rehn,  F. Rob,  M. Scheurer,  
 M. Schneider,  N. Sergueev,  S. M. Sharada,  S. Sharma,  D. W. Small,  
 T. Stauch,  T. Stein,  Yu-Chuan Su,  A. J. W. Thom,  A. Tkatchenko,  
 T. Tsuchimochi,  N. M. Tubman,  L. Vogt,  M. L. Vidal,  O. Vydrov,  
 M. A. Watson,  J. Wenzel,  M. de Wergifosse,  T. A. Wesolowski,  A. White,  
 J. Witte,  A. Yamada,  Jun Yang,  K. Yao,  S. Yeganeh,  S. R. Yost,  
 Zhi-Qiang You,  A. Zech,  Igor Ying Zhang,  Xing Zhang,  Yan Zhao,  
 Ying Zhu,  B. R. Brooks,  G. K. L. Chan,  C. J. Cramer,  M. S. Gordon,  
 W. J. Hehre,  A. Klamt,  M. W. Schmidt,  C. D. Sherrill,  D. G. Truhlar,  
 A. Aspuru-Guzik,  R. Baer,  A. T. Bell,  N. A. Besley,  Jeng-Da Chai,  
 A. E. DePrince, III,  R. A. DiStasio Jr.,  A. Dreuw,  B. D. Dunietz,  
 T. R. Furlani,  Chao-Ping Hsu,  Yousung Jung,  Jing Kong,  D. S. Lambrecht,  
 WanZhen Liang,  C. Ochsenfeld,  V. A. Rassolov,  L. V. Slipchenko,  
 J. E. Subotnik,  T. Van Voorhis,  J. M. Herbert,  A. I. Krylov,  
 P. M. W. Gill,  M. Head-Gordon

 Contributors to earlier versions of Q-Chem not listed above: 
 R. D. Adamson,  B. Austin,  J. Baker,  G. J. O. Beran,  K. Brandhorst,  
 S. T. Brown,  E. F. C. Byrd,  A. K. Chakraborty,  C.-L. Cheng,  
 Siu Hung Chien,  D. M. Chipman,  D. L. Crittenden,  H. Dachsel,  
 R. J. Doerksen,  A. D. Dutoi,  L. Fusti-Molnar,  W. A. Goddard III,  
 A. Golubeva-Zadorozhnaya,  S. R. Gwaltney,  G. Hawkins,  A. Heyden,  
 S. Hirata,  G. Kedziora,  F. J. Keil,  C. Kelley,  Jihan Kim,  R. A. King,  
 R. Z. Khaliullin,  P. P. Korambath,  W. Kurlancheek,  A. M. Lee,  M. S. Lee,  
 S. V. Levchenko,  Ching Yeh Lin,  D. Liotard,  R. C. Lochan,  I. Lotan,  
 P. E. Maslen,  N. Nair,  D. P. O'Neill,  D. Neuhauser,  E. Neuscamman,  
 C. M. Oana,  R. Olson,  B. Peters,  R. Peverati,  P. A. Pieniazek,  
 Y. M. Rhee,  J. Ritchie,  M. A. Rohrdanz,  E. Rosta,  N. J. Russ,  
 H. F. Schaefer III,  N. E. Schultz,  N. Shenvi,  A. C. Simmonett,  A. Sodt,  
 D. Stuck,  K. S. Thanthiriwatte,  V. Vanovschi,  Tao Wang,  A. Warshel,  
 C. F. Williams,  Q. Wu,  X. Xu,  W. Zhang

 Please cite Q-Chem as follows:
 Y. Shao et al., Mol. Phys. 113, 184-215 (2015)
 DOI: 10.1080/00268976.2014.952696

 Q-Chem 5.2.1 for Intel X86 EM64T Linux

 Parts of Q-Chem use Armadillo 8.300.2 (Tropical Shenanigans).
 http://arma.sourceforge.net/

 Q-Chem begins on Mon Feb  7 15:08:55 2022  

Host: 
0

     Scratch files written to /gpfs/fs0/scratch/a/aspuru/rhickman/descriptor_computation/qchem90678//
 Jul1719 |scratch|qcdevops|jenkins|workspace|build_RNUM -1
Processing $rem in /scinet/niagara/software/commercial/qc52/config/preferences:
	 MEM_TOTAL  4000 
NAlpha2: 222
NElect   222
Mult     1

Checking the input file for inconsistencies... 	...done.

--------------------------------------------------------------
User input:
--------------------------------------------------------------
$molecule
0 1
C        -0.43008366440000   -0.99099144390000   -3.22382696190000
O         0.14732914980000   -1.22045897730000   -1.94768606670000
C        -0.38665372430000   -2.22344102480000   -1.23496384380000
C         0.31331154010000   -2.40957552930000    0.06545653060000
C         0.66811271260000   -1.34018546990000    0.89757759880000
N         0.26558571410000   -0.02601207370000    0.61062865480000
C         1.16802053890000    1.01752272380000    0.77966103650000
C         2.52683254550000    0.81249725050000    0.53936634580000
C         3.42448266270000    1.85068914690000    0.72775326100000
C         4.87413916620000    1.58346488840000    0.44128746930000
F         5.30920598840000    0.45220787770000    1.02644038210000
F         5.11024294700000    1.43077405020000   -0.87710572870000
F         5.68935527850000    2.56184614330000    0.85708530650000
C         2.99970681950000    3.10595052620000    1.13973594290000
C         1.64854371810000    3.30634145710000    1.37417893880000
C         0.74190923570000    2.27995528040000    1.20337975790000
C        -1.03741222750000    0.21043421740000    0.16156886580000
C        -2.09398248200000   -0.58110627130000    0.61383285270000
C        -3.37705631580000   -0.37343240780000    0.15590801520000
C        -3.65250177210000    0.63690721460000   -0.76863460660000
C        -4.97762934480000    0.90782363600000   -1.29568701740000
C        -6.12841898070000    0.33826358690000   -0.96610285200000
F        -6.34334731090000   -0.61385932310000   -0.06702933160000
F        -7.29042479050000    0.67621828070000   -1.52333830290000
C        -2.58877789950000    1.42700653360000   -1.21507141420000
C        -1.30469788830000    1.22208747310000   -0.76198770810000
C         1.38828342700000   -1.60284319540000    2.06210448040000
C         1.73898759690000   -2.89604077190000    2.39744147470000
C         1.35240691790000   -3.95700895620000    1.59288208110000
C         0.63721430370000   -3.71021636390000    0.43647675340000
O        -1.28112967910000   -2.92218037290000   -1.63561500940000
H        -1.46613054150000   -0.66337425650000   -3.11377205360000
H        -0.41020448020000   -1.90664770970000   -3.81812354900000
H         0.16927569100000   -0.21547327400000   -3.69322498300000
H         2.87740582690000   -0.15169036760000    0.20412457710000
H         3.71067516430000    3.90425487060000    1.27812372870000
H         1.30285094330000    4.27351409360000    1.70469819260000
H        -0.30553719880000    2.44389164590000    1.40690727210000
H        -1.90423881180000   -1.36558725370000    1.33094454930000
H        -4.16673894280000   -1.00635289720000    0.52415279310000
H        -5.04813843020000    1.67577292750000   -2.05272611880000
H        -2.77496901610000    2.20728914970000   -1.93867630340000
H        -0.49452209240000    1.82910382360000   -1.13696582570000
H         1.66175323130000   -0.78050315530000    2.70667664460000
H         2.29960882010000   -3.07753017240000    3.30172141700000
H         1.60852973460000   -4.96865609050000    1.86560303020000
H         0.33010522590000   -4.51891603720000   -0.20905396700000
$end

$rem
BASIS = 6-31G*
GUI = 2
METHOD = B3LYP
PRINT_ORBITALS false
MOLDEN_FORMAT false
--------------------------------------------------------------
 ----------------------------------------------------------------
             Standard Nuclear Orientation (Angstroms)
    I     Atom           X                Y                Z
 ----------------------------------------------------------------
    1      C      -1.1437681611    -0.6708797985    -3.1218666555
    2      O      -0.3726918984    -1.0647607952    -1.9971908583
    3      C      -0.8924771442    -2.0464883561    -1.2454475784
    4      C       0.0082078454    -2.4142119884    -0.1188436307
    5      C       0.6530314357    -1.4619491778     0.6807203257
    6      N       0.3833069742    -0.0906781166     0.5455027675
    7      C       1.4328291744     0.8196567110     0.5869646218
    8      C       2.6823254407     0.4698298088     0.0745904701
    9      C       3.7301164637     1.3739928137     0.1356724574
   10      C       5.0509974401     0.9550651638    -0.4429020863
   11      F       5.4329396120    -0.2617047360    -0.0127617793
   12      F       5.0123778049     0.8750748056    -1.7880155307
   13      F       6.0533376299     1.7928326544    -0.1459933346
   14      C       3.5622867203     2.6367457573     0.6862481181
   15      C       2.3185121745     2.9814994908     1.1911555477
   16      C       1.2668666925     2.0887806894     1.1496591568
   17      C      -0.9373036783     0.3356553706     0.3734782322
   18      C      -1.9862428454    -0.3535909040     0.9834667227
   19      C      -3.2929853230     0.0425167869     0.7973891909
   20      C      -3.5996190950     1.1459149695    -0.0025630528
   21      C      -4.9518140959     1.6149572772    -0.2448666398
   22      C      -6.0857870674     1.1661413089     0.2747588832
   23      F      -6.2532838219     0.1818726436     1.1489587744
   24      F      -7.2759678622     1.6839959233    -0.0257049232
   25      C      -2.5428166068     1.8324245219    -0.6083223857
   26      C      -1.2356367413     1.4392875218    -0.4270429341
   27      C       1.5375807248    -1.8975743264     1.6663983063
   28      C       1.7687880166    -3.2454522434     1.8602348241
   29      C       1.0993529273    -4.1876051812     1.0943246269
   30      C       0.2190510824    -3.7689015003     0.1148164694
   31      O      -1.9316609601    -2.5990106477    -1.4977596485
   32      H      -2.0872967618    -0.2290819906    -2.7941370223
   33      H      -1.3587313595    -1.5345248080    -3.7542574631
   34      H      -0.5450610576     0.0593611102    -3.6597259219
   35      H       2.8313445896    -0.5016416644    -0.3714845259
   36      H       4.3869275986     3.3299610694     0.7228123870
   37      H       2.1737532489     3.9556897570     1.6318000292
   38      H       0.3079155895     2.3628920667     1.5628399272
   39      H      -1.7717728745    -1.2073389466     1.6085900456
   40      H      -4.0768121045    -0.5158112552     1.2807902537
   41      H      -5.0599895728     2.4408789134    -0.9333267791
   42      H      -2.7556128519     2.6820773854    -1.2407145886
   43      H      -0.4366033421     1.9699979719    -0.9223754527
   44      H       2.0349363712    -1.1657348438     2.2857128330
   45      H       2.4600225115    -3.5616552991     2.6265032320
   46      H       1.2644416505    -5.2405998974     1.2597131962
   47      H      -0.3093901295    -4.4830811216    -0.4981422668
 ----------------------------------------------------------------
 Molecular Point Group                 C1    NOp =  1
 Largest Abelian Subgroup              C1    NOp =  1
 Nuclear Repulsion Energy =        3082.88203515 hartrees
 There are      111 alpha and      111 beta electrons
 Requested basis set is 6-31G(d)
 There are 156 shells and 497 basis functions

 Total QAlloc Memory Limit   4000 MB
 Mega-Array Size       188 MB
 MEM_STATIC part       192 MB
 A cutoff of  1.0D-08 yielded   5295 shell pairs
 There are     56098 function pairs
 Smallest overlap matrix eigenvalue = 3.27E-04

 Scale SEOQF with 1.000000e-02/1.000000e-01/1.000000e-01

 Standard Electronic Orientation quadrupole field applied
 Nucleus-field energy     =     0.0000000343 hartrees
 Guess from superposition of atomic densities
 Warning:  Energy on first SCF cycle will be non-variational
 SAD guess density has 222.000000 electrons

 -----------------------------------------------------------------------
  General SCF calculation program by
  Eric Jon Sundstrom, Paul Horn, Yuezhi Mao, Dmitri Zuev, Alec White,
  David Stuck, Shaama M.S., Shane Yost, Joonho Lee, David Small,
  Daniel Levine, Susi Lehtola, Hugh Burton, Evgeny Epifanovsky,
  Bang C. Huynh
 -----------------------------------------------------------------------
 Exchange:     0.2000 Hartree-Fock + 0.0800 Slater + 0.7200 B88
 Correlation:  0.1900 VWN1RPA + 0.8100 LYP
 Using SG-1 standard quadrature grid
 A restricted SCF calculation will be
 performed using DIIS
 SCF converges when DIIS error is below 1.0e-05
 ---------------------------------------
  Cycle       Energy         DIIS error
 ---------------------------------------
    1   -1597.9459337515      3.64e-02  
    2   -1589.9775251443      4.18e-03  
    3   -1589.3943622808      6.42e-03  
    4   -1590.3984889391      1.54e-03  
    5   -1590.4578526905      5.49e-04  
    6   -1590.4653791791      2.05e-04  
    7   -1590.4665477942      7.19e-05  
    8   -1590.4666950368      2.37e-05  
    9   -1590.4667107090      5.94e-06  Convergence criterion met
 ---------------------------------------
 SCF time:   CPU 208.20s  wall 209.00s 
 SCF   energy in the final basis set =    -1590.4667107090
 Total energy in the final basis set =    -1590.4667107090
 
 --------------------------------------------------------------
 
                    Orbital Energies (a.u.)
 --------------------------------------------------------------
 
 Alpha MOs
 -- Occupied --
-24.7442 -24.7335 -24.7230 -24.7174 -24.7139 -19.1920 -19.1351 -14.3805
-10.4271 -10.3557 -10.3155 -10.2447 -10.2446 -10.2366 -10.2357 -10.2158
-10.2088 -10.2065 -10.2040 -10.2037 -10.2036 -10.2026 -10.2023 -10.2017
-10.2016 -10.1995 -10.1973 -10.1964 -10.1938 -10.1929 -10.1921  -1.3025
 -1.2851  -1.2242  -1.2133  -1.2068  -1.1100  -1.0191  -0.9951  -0.8814
 -0.8765  -0.8610  -0.8102  -0.7936  -0.7837  -0.7689  -0.7624  -0.7573
 -0.7314  -0.7192  -0.6972  -0.6572  -0.6520  -0.6346  -0.6288  -0.6206
 -0.6162  -0.6011  -0.5775  -0.5763  -0.5730  -0.5707  -0.5691  -0.5502
 -0.5355  -0.5187  -0.5160  -0.5137  -0.5082  -0.4945  -0.4832  -0.4804
 -0.4722  -0.4699  -0.4604  -0.4558  -0.4542  -0.4519  -0.4483  -0.4454
 -0.4437  -0.4406  -0.4332  -0.4257  -0.4240  -0.4158  -0.4127  -0.4092
 -0.4056  -0.4029  -0.3944  -0.3916  -0.3856  -0.3838  -0.3771  -0.3762
 -0.3734  -0.3663  -0.3602  -0.3542  -0.3498  -0.3325  -0.3031  -0.2972
 -0.2833  -0.2747  -0.2712  -0.2611  -0.2586  -0.2389  -0.1909
 -- Virtual --
 -0.0436  -0.0368  -0.0268  -0.0190  -0.0024   0.0102   0.0407   0.0676
  0.0826   0.0925   0.0965   0.1141   0.1191   0.1271   0.1357   0.1384
  0.1448   0.1461   0.1484   0.1549   0.1554   0.1574   0.1615   0.1683
  0.1741   0.1790   0.1824   0.1851   0.1873   0.1889   0.2014   0.2089
  0.2272   0.2387   0.2433   0.2525   0.2644   0.2721   0.2810   0.2883
  0.2915   0.2930   0.3075   0.3132   0.3172   0.3295   0.3527   0.3574
  0.3671   0.3861   0.3956   0.4046   0.4122   0.4242   0.4404   0.4614
  0.4767   0.4777   0.4870   0.4880   0.4987   0.5040   0.5092   0.5130
  0.5212   0.5311   0.5347   0.5354   0.5393   0.5466   0.5510   0.5590
  0.5616   0.5665   0.5674   0.5721   0.5760   0.5766   0.5814   0.5842
  0.5908   0.5938   0.5974   0.5984   0.6000   0.6053   0.6091   0.6118
  0.6175   0.6247   0.6342   0.6427   0.6474   0.6539   0.6594   0.6666
  0.6731   0.6801   0.6881   0.6981   0.7123   0.7175   0.7304   0.7355
  0.7521   0.7717   0.7774   0.7836   0.8028   0.8067   0.8161   0.8194
  0.8208   0.8258   0.8279   0.8356   0.8401   0.8422   0.8449   0.8535
  0.8634   0.8694   0.8740   0.8773   0.8804   0.8860   0.8937   0.9109
  0.9131   0.9183   0.9325   0.9449   0.9586   0.9637   0.9659   0.9785
  0.9855   0.9990   1.0093   1.0257   1.0281   1.0366   1.0388   1.0421
  1.0767   1.0784   1.0833   1.0888   1.0949   1.1018   1.1097   1.1155
  1.1250   1.1282   1.1375   1.1557   1.1624   1.1658   1.1671   1.1723
  1.1760   1.1863   1.1952   1.2087   1.2145   1.2198   1.2277   1.2358
  1.2462   1.2711   1.2797   1.2840   1.2880   1.3026   1.3139   1.3203
  1.3347   1.3365   1.3453   1.3488   1.3608   1.3689   1.3843   1.3888
  1.3945   1.4013   1.4031   1.4135   1.4303   1.4328   1.4433   1.4483
  1.4510   1.4569   1.4617   1.4666   1.4699   1.4759   1.4806   1.4845
  1.4883   1.4978   1.5047   1.5103   1.5214   1.5253   1.5631   1.5891
  1.6043   1.6376   1.6465   1.6626   1.6734   1.6877   1.6937   1.7091
  1.7160   1.7224   1.7365   1.7453   1.7624   1.7712   1.7787   1.7835
  1.7865   1.7916   1.8016   1.8082   1.8228   1.8272   1.8370   1.8414
  1.8541   1.8638   1.8708   1.8732   1.8854   1.8927   1.8944   1.8986
  1.9054   1.9128   1.9239   1.9338   1.9344   1.9552   1.9642   1.9690
  1.9776   1.9811   1.9862   1.9962   2.0025   2.0107   2.0166   2.0208
  2.0285   2.0377   2.0420   2.0477   2.0569   2.0604   2.0678   2.0746
  2.0863   2.0978   2.1006   2.1043   2.1158   2.1239   2.1324   2.1360
  2.1481   2.1594   2.1632   2.1710   2.1765   2.1794   2.1962   2.2038
  2.2147   2.2286   2.2413   2.2642   2.2717   2.2791   2.2869   2.2898
  2.2978   2.3033   2.3113   2.3225   2.3265   2.3368   2.3445   2.3516
  2.3666   2.4061   2.4138   2.4320   2.4528   2.4744   2.4871   2.4951
  2.5230   2.5247   2.5497   2.5646   2.5684   2.5869   2.5981   2.6221
  2.6307   2.6402   2.6438   2.6496   2.6598   2.6692   2.6892   2.6924
  2.7080   2.7292   2.7374   2.7509   2.7583   2.7683   2.7744   2.7876
  2.7950   2.8091   2.8334   2.8381   2.8545   2.8923   2.9202   2.9358
  2.9401   2.9503   2.9638   2.9961   3.0221   3.0334   3.0478   3.0588
  3.0718   3.1104   3.1272   3.1517   3.1623   3.2531   3.2965   3.3328
  3.4385   3.4693   3.4856   4.0093   4.0811   4.0879   4.0956   4.1074
  4.1153   4.1219   4.1407   4.1764   4.1828   4.2043   4.2476   4.2649
  4.2724   4.3335   4.3619   4.3699   4.3824   4.4092   4.4416   4.4715
  4.4990   4.5239   4.5661   4.7220   4.7489   4.7804   4.8146   4.8299
  5.2902   5.6247
 --------------------------------------------------------------
 
          Ground-State Mulliken Net Atomic Charges

     Atom                 Charge (a.u.)
  ----------------------------------------
      1 C                    -0.223022
      2 O                    -0.437014
      3 C                     0.542937
      4 C                     0.074875
      5 C                     0.248277
      6 N                    -0.648449
      7 C                     0.297802
      8 C                    -0.210485
      9 C                    -0.009879
     10 C                     0.777018
     11 F                    -0.268649
     12 F                    -0.264917
     13 F                    -0.267503
     14 C                    -0.166266
     15 C                    -0.142952
     16 C                    -0.162287
     17 C                     0.283019
     18 C                    -0.179321
     19 C                    -0.190785
     20 C                     0.199990
     21 C                    -0.300754
     22 C                     0.542771
     23 F                    -0.234059
     24 F                    -0.249138
     25 C                    -0.214994
     26 C                    -0.169032
     27 C                    -0.164888
     28 C                    -0.127198
     29 C                    -0.132032
     30 C                    -0.171716
     31 O                    -0.481145
     32 H                     0.174951
     33 H                     0.169323
     34 H                     0.162239
     35 H                     0.170887
     36 H                     0.150101
     37 H                     0.140772
     38 H                     0.155909
     39 H                     0.153533
     40 H                     0.146146
     41 H                     0.157414
     42 H                     0.130597
     43 H                     0.149799
     44 H                     0.151810
     45 H                     0.140811
     46 H                     0.137413
     47 H                     0.158094
  ----------------------------------------
  Sum of atomic charges =     0.000000

 -----------------------------------------------------------------
                    Cartesian Multipole Moments
 -----------------------------------------------------------------
    Charge (ESU x 10^10)
                 0.0000
    Dipole Moment (Debye)
         X      -0.0231      Y       1.4496      Z       0.7886
       Tot       1.6504
    Quadrupole Moments (Debye-Ang)
        XX    -196.2673     XY      -7.0219     YY    -159.3744
        XZ       7.5126     YZ      -4.6653     ZZ    -164.4616
    Octopole Moments (Debye-Ang^2)
       XXX      -6.2695    XXY      11.5121    XYY      35.8976
       YYY       9.8912    XXZ      10.7044    XYZ      14.7996
       YYZ      13.5527    XZZ      -2.6995    YZZ       2.5643
       ZZZ     -44.0498
    Hexadecapole Moments (Debye-Ang^3)
      XXXX  -12761.7918   XXXY      34.9794   XXYY   -2557.7141
      XYYY     -33.8017   YYYY   -3617.9819   XXXZ      14.4354
      XXYZ     -40.5885   XYYZ      21.5915   YYYZ     -27.7062
      XXZZ   -2180.8161   XYZZ     -34.4859   YYZZ    -884.8879
      XZZZ     -62.9453   YZZZ       6.2395   ZZZZ   -1440.0023
 -----------------------------------------------------------------
Archival summary:
1\1\nia1977.scinet.local\SP\ProcedureUnspecified\6-31G*\5212316\rhickman\MonFeb715:12:252022MonFeb715:12:252022\0\\#,ProcedureUnspecified,6-31G*,\\0,1\N\C,1,1.38994\C,2,1.39504,1,120.074\H,3,1.07933,2,120.077,1,1.1366,0\C,3,1.38532,2,119.84,1,-179.08,0\C,5,1.38775,3,121.326,2,-0.71043,0\H,6,1.07792,5,120.405,3,-179.768,0\C,6,1.38592,5,118.648,3,0.545411,0\H,8,1.07897,6,119.59,5,179.378,0\C,8,1.38008,6,120.797,5,0.0578854,0\H,10,1.07956,8,120.075,6,178.867,0\C,1,1.39834,2,121.138,3,-146.551,0\C,12,1.3955,1,120.366,2,-146.609,0\H,13,1.07966,12,119.626,1,1.34559,0\C,13,1.37808,12,120.781,1,-178.651,0\H,15,1.07694,13,118.72,12,179.756,0\C,12,1.39565,1,120.899,2,34.5465,0\H,17,1.07957,12,119.584,1,0.149737,0\C,17,1.377,12,120.278,1,178.743,0\H,19,1.08033,17,119.248,12,-179.29,0\C,15,1.39694,13,120.83,12,-0.209721,0\C,1,1.40407,2,119.454,3,33.5495,0\C,22,1.39419,1,119.678,2,44.5667,0\H,23,1.08005,22,119.068,1,-2.55412,0\C,23,1.38123,22,120.686,1,176.862,0\H,25,1.07933,23,119.52,22,179.789,0\C,25,1.38651,23,120.316,22,-1.44586,0\H,27,1.07861,25,120.316,23,-178.715,0\C,27,1.38191,25,119.553,23,1.36848,0\H,29,1.07936,27,120.925,25,179.635,0\C,29,1.39077,27,120.716,25,0.637624,0\C,21,1.4516,15,123.73,13,179.792,0\H,32,1.08066,21,116.522,15,-176.209,0\C,32,1.32565,21,128.463,15,4.13137,0\F,34,1.32705,32,128.119,21,0.396195,0\F,34,1.33228,32,122.968,21,179.886,0\C,31,1.48852,29,117.356,27,176.395,0\O,37,1.20368,31,124.586,29,42.1779,0\O,37,1.3413,31,111.748,29,-134.487,0\C,39,1.41936,37,115.893,31,178.247,0\H,40,1.08674,39,106.222,37,-175.157,0\H,40,1.09179,39,110.268,37,-55.1765,0\H,40,1.09217,39,110.109,37,64.9998,0\C,5,1.50166,3,117.79,2,-179.353,0\F,44,1.33966,5,113.471,3,-169.602,0\F,44,1.34589,5,112.253,3,-48.9331,0\F,44,1.34804,5,112.074,3,70.0585,0\\\@

 Total job time:  209.71s(wall), 208.79s(cpu) 
 Mon Feb  7 15:12:25 2022

        *************************************************************
        *                                                           *
        *  Thank you very much for using Q-Chem.  Have a nice day.  *
        *                                                           *
        *************************************************************


