
Running Job 1 of 1 tidas/B031/conf-5/spe_input.inp
qchem tidas/B031/conf-5/spe_input.inp_134479.0 /home/a/aspuru/seifridm/acdc_laser/descriptor_computation/qchem134479/ 0
/gpfs/fs1/scinet/niagara/software/commercial/qc54/exe/qcprog.exe_s tidas/B031/conf-5/spe_input.inp_134479.0 /home/a/aspuru/seifridm/acdc_laser/descriptor_computation/qchem134479/
                  Welcome to Q-Chem
     A Quantum Leap Into The Future Of Chemistry


 Q-Chem 5.4, Q-Chem, Inc., Pleasanton, CA (2021)

 License issued to: SRG Alan Aspuru-Guzik, University of Toronto

 E. Epifanovsky,  A. T. B. Gilbert,  Xintian Feng,  Joonho Lee,  Yuezhi Mao,  
 N. Mardirossian,  P. Pokhilko,  A. White,  M. Wormit,  M. P. Coons,  
 A. L. Dempwolff,  Zhengting Gan,  D. Hait,  P. R. Horn,  L. D. Jacobson,  
 I. Kaliman,  J. Kussmann,  A. W. Lange,  Ka Un Lao,  D. S. Levine,  Jie Liu,  
 S. C. McKenzie,  A. F. Morrison,  K. Nanda,  F. Plasser,  D. R. Rehn,  
 M. L. Vidal,  Zhi-Qiang You,  Ying Zhu,  B. Alam,  B. Albrecht,  
 A. Aldossary,  E. Alguire,  J. H. Andersen,  D. Barton,  K. Begam,  A. Behn,  
 Y. A. Bernard,  E. J. Berquist,  H. Burton,  A. Carreras,  K. Carter-Fenk,  
 Romit Chakraborty,  A. D. Chien,  K. D. Closser,  V. Cofer-Shabica,  
 S. Dasgupta,  Jia Deng,  M. de Wergifosse,  M. Diedenhofen,  Hainam Do,  
 S. Ehlert,  Po-Tung Fang,  S. Fatehi,  Qingguo Feng,  T. Friedhoff,  
 J. Gayvert,  Qinghui Ge,  G. Gidofalvi,  M. Goldey,  J. Gomes,  
 C. Gonzalez-Espinoza,  S. Gulania,  A. Gunina,  M. W. D. Hanson-Heine,  
 P. H. P. Harbach,  A. W. Hauser,  M. F. Herbst,  M. Hernandez Vera,  
 M. Hodecker,  Z. C. Holden,  S. Houck,  Xunkun Huang,  Kerwin Hui,  
 B. C. Huynh,  M. Ivanov,  Hyunjun Ji,  Hanjie Jiang,  B. Kaduk,  S. Kaehler,  
 K. Khistyaev,  Jaehoon Kim,  P. Klunzinger,  Z. Koczor-Benda,  
 Joong Hoon Koh,  D. Kosenkov,  L. Koulias,  T. Kowalczyk,  C. M. Krauter,  
 K. Kue,  A. Kunitsa,  T. Kus,  A. Landau,  K. V. Lawler,  D. Lefrancois,  
 S. Lehtola,  Rain Li,  Yi-Pei Li,  Jiashu Liang,  M. Liebenthal,  
 Hung-Hsuan Lin,  You-Sheng Lin,  Fenglai Liu,  Kuan-Yu Liu,  
 M. Loipersberger,  A. Luenser,  A. Manjanath,  P. Manohar,  E. Mansoor,  
 S. F. Manzer,  Shan-Ping Mao,  A. V. Marenich,  T. Markovich,  S. Mason,  
 S. A. Maurer,  P. F. McLaughlin,  M. F. S. J. Menger,  J.-M. Mewes,  
 S. A. Mewes,  P. Morgante,  J. W. Mullinax,  K. J. Oosterbaan,  G. Paran,  
 Alexander C. Paul,  Suranjan K. Paul,  F. Pavosevic,  Zheng Pei,  S. Prager,  
 E. I. Proynov,  E. Ramos,  B. Rana,  A. E. Rask,  A. Rettig,  R. M. Richard,  
 F. Rob,  E. Rossomme,  T. Scheele,  M. Scheurer,  M. Schneider,  
 N. Sergueev,  S. M. Sharada,  W. Skomorowski,  D. W. Small,  C. J. Stein,  
 Yu-Chuan Su,  E. J. Sundstrom,  Zhen Tao,  J. Thirman,  T. Tsuchimochi,  
 N. M. Tubman,  S. P. Veccham,  O. Vydrov,  J. Wenzel,  J. Witte,  A. Yamada,  
 Kun Yao,  S. Yeganeh,  S. R. Yost,  A. Zech,  Igor Ying Zhang,  Xing Zhang,  
 Yu Zhang,  D. Zuev,  A. Aspuru-Guzik,  A. T. Bell,  N. A. Besley,  
 K. B. Bravaya,  B. R. Brooks,  D. Casanova,  Jeng-Da Chai,  S. Coriani,  
 C. J. Cramer,  A. E. DePrince, III,  R. A. DiStasio Jr.,  A. Dreuw,  
 B. D. Dunietz,  T. R. Furlani,  W. A. Goddard III,  S. Grimme,  
 S. Hammes-Schiffer,  T. Head-Gordon,  W. J. Hehre,  Chao-Ping Hsu,  
 T.-C. Jagau,  Yousung Jung,  A. Klamt,  Jing Kong,  D. S. Lambrecht,  
 WanZhen Liang,  N. J. Mayhall,  C. W. McCurdy,  J. B. Neaton,  T. Neudecker,  
 C. Ochsenfeld,  J. A. Parkhill,  R. Peverati,  V. A. Rassolov,  Yihan Shao,  
 L. V. Slipchenko,  R. P. Steele,  J. E. Subotnik,  A. J. W. Thom,  
 A. Tkatchenko,  D. G. Truhlar,  T. Van Voorhis,  T. A. Wesolowski,  
 K. B. Whaley,  H. L. Woodcock III,  P. M. Zimmerman,  S. Faraji,  
 P. M. W. Gill,  M. Head-Gordon,  J. M. Herbert,  A. I. Krylov

 Additional authors since Version 5.4.0: 
 Chandrima Chakravarty,  L. Cunha,  R. Kang,  Yongbin Kim,  S. Kotaru,  
 Shaozhi Li,  Xiangyuan Li,  F. Matz,  A. Molle,  V. Parravicini,  
 Haisheng Ren,  Hengyuan Shen,  Yingli Su,  Hung-Yi Tsai,  C. Utku,  
 Fang Wang,  Jeff Yang,  F. Zeller

 Contributors to earlier versions of Q-Chem not listed above: 
 R. D. Adamson,  B. Austin,  R. Baer,  J. Baker,  G. J. O. Beran,  
 K. Brandhorst,  S. T. Brown,  E. F. C. Byrd,  Arup K. Chakraborty,  
 G. K. L. Chan,  Chun-Min Chang,  Yunqing Chen,  C.-L. Cheng,  
 Siu Hung Chien,  D. M. Chipman,  D. L. Crittenden,  H. Dachsel,  
 R. J. Doerksen,  A. D. Dutoi,  R. G. Edgar,  J. Fosso-Tande,  
 L. Fusti-Molnar,  D. Ghosh,  A. Ghysels,  A. Golubeva-Zadorozhnaya,  
 J. Gonthier,  M. S. Gordon,  S. R. Gwaltney,  G. Hawkins,  J. E. Herr,  
 A. Heyden,  S. Hirata,  E. G. Hohenstein,  G. Kedziora,  F. J. Keil,  
 C. Kelley,  Jihan Kim,  R. A. King,  R. Z. Khaliullin,  P. P. Korambath,  
 W. Kurlancheek,  A. Laurent,  A. M. Lee,  M. S. Lee,  S. V. Levchenko,  
 Ching Yeh Lin,  D. Liotard,  E. Livshits,  R. C. Lochan,  I. Lotan,  
 L. A. Martinez-Martinez,  P. E. Maslen,  N. Nair,  D. P. O'Neill,  
 D. Neuhauser,  E. Neuscamman,  C. M. Oana,  R. Olivares-Amaya,  R. Olson,  
 T. M. Perrine,  B. Peters,  P. A. Pieniazek,  A. Prociuk,  Y. M. Rhee,  
 J. Ritchie,  M. A. Rohrdanz,  E. Rosta,  N. J. Russ,  H. F. Schaefer III,  
 M. W. Schmidt,  N. E. Schultz,  S. Sharma,  N. Shenvi,  C. D. Sherrill,  
 A. C. Simmonett,  A. Sodt,  T. Stein,  D. Stuck,  K. S. Thanthiriwatte,  
 V. Vanovschi,  L. Vogt,  Tao Wang,  A. Warshel,  M. A. Watson,  
 C. F. Williams,  Q. Wu,  X. Xu,  Jun Yang,  W. Zhang,  Yan Zhao

   Please cite Q-Chem as follows:
  "Software for the frontiers of quantum chemistry:
   An overview of developments in the Q-Chem 5 package"
   J. Chem. Phys. 155, 084801 (2021)
   https://doi.org/10.1063/5.0055522 (open access)

 Q-Chem 5.4.2 for Intel X86 EM64T Linux

 Parts of Q-Chem use Armadillo 9.900.5 (Nocturnal Misbehaviour).
 http://arma.sourceforge.net/

 Q-Chem begins on Fri Aug 12 13:11:43 2022  

 Host: 
0

     Scratch files written to /home/a/aspuru/seifridm/acdc_laser/descriptor_computation/qchem134479//
 Dec1321 |scratch|qcdevops|jenkins|workspace|build_RNUM 6959   
 Processing $rem in /gpfs/fs1/scinet/niagara/software/commercial/qc54/config/preferences:
 Processing $rem in /home/a/aspuru/seifridm/.qchemrc:

 Checking the input file for inconsistencies... 	...done.

--------------------------------------------------------------
User input:
--------------------------------------------------------------
$molecule
0 1
C           -4.64510122020000        0.29061314000000        0.20761160390000
C           -3.61949734450000       -0.15206954270000       -0.50559434400000
C           -2.20030289120000        0.01180154490000       -0.18205952480000
C           -1.37103979080000       -1.08872734460000       -0.38809313740000
C           -0.01479573310000       -1.08215642860000       -0.10561716350000
C            0.78267726490000       -2.33434765340000       -0.30212184910000
C            0.54485166710000        0.10261561450000        0.38450580030000
C            1.96307402000000        0.25900247700000        0.71816954270000
C            2.99587633070000       -0.09526331040000       -0.02494553050000
F            2.97114699220000       -0.65562547470000       -1.22861981060000
F            4.26618987460000        0.09813269120000        0.33525741420000
C           -0.27973518330000        1.20569781290000        0.59292077180000
C           -1.63633755790000        1.19432537690000        0.31423576980000
C           -2.42671584120000        2.45098846720000        0.52269763110000
H           -5.66126435220000        0.09506862910000       -0.09153425320000
H           -4.51790555490000        0.83396371400000        1.12733686290000
H           -3.81015699330000       -0.74548113320000       -1.39246877150000
H           -1.81419669780000       -1.99946984250000       -0.76733511630000
H            0.14038200410000       -3.20718107150000       -0.21002279200000
H            1.58331976820000       -2.40978646830000        0.43076826300000
H            1.23086221450000       -2.35013630300000       -1.29504930040000
H            2.19697350680000        0.76956592490000        1.64153634810000
H            0.16577640080000        2.11599676880000        0.97009514350000
H           -1.79143805060000        3.32169413330000        0.37313026340000
H           -2.81491586780000        2.49497997020000        1.54034228160000
H           -3.26668617110000        2.50287296070000       -0.16548083960000
$end

$rem
BASIS = 6-31G*
GUI = 2
METHOD = B3LYP
PRINT_ORBITALS false
MOLDEN_FORMAT false
$end
--------------------------------------------------------------
 ----------------------------------------------------------------
             Standard Nuclear Orientation (Angstroms)
    I     Atom           X                Y                Z
 ----------------------------------------------------------------
    1      C       4.5115116869     0.3962620770     0.2101912167
    2      C       3.4091106335     0.8795256497    -0.3444818656
    3      C       2.0436852736     0.3940339144    -0.1310509154
    4      C       1.0442394983     1.3537681084     0.0149264624
    5      C      -0.2852716483     1.0382302586     0.2431144842
    6      C      -1.2772535655     2.1410372084     0.4489028341
    7      C      -0.6351493956    -0.3150680339     0.3003841936
    8      C      -2.0005277555    -0.7967760876     0.5258665019
    9      C      -3.0967691556    -0.3870915275    -0.0863574988
   10      F      -3.1950091809     0.5348142425    -1.0370875954
   11      F      -4.3095533866    -0.8883849593     0.1559315409
   12      C       0.3601546074    -1.2787088357     0.1556881071
   13      C       1.6893590896    -0.9598941469    -0.0673305109
   14      C       2.6753835919    -2.0719331668    -0.2634967665
   15      H       5.4748413567     0.8388956592     0.0194430327
   16      H       4.4980599014    -0.4326303152     0.8958001338
   17      H       3.4781217605     1.7543101694    -0.9808969628
   18      H       1.3259057175     2.3969415387    -0.0310926155
   19      H      -0.7799764716     3.0254480183     0.8405616464
   20      H      -2.0590773257     1.8420993221     1.1440539669
   21      H      -1.7495504385     2.4112857611    -0.4949855797
   22      H      -2.1244026536    -1.6133794633     1.2228630573
   23      H       0.0760367725    -2.3211641206     0.1998390092
   24      H       2.1831008813    -2.9343148169    -0.7085049105
   25      H       3.0936649896    -2.3861395018     0.6928244134
   26      H       3.4935014538    -1.7595283089    -0.9076381579
 ----------------------------------------------------------------
 Molecular Point Group                 C1    NOp =  1
 Largest Abelian Subgroup              C1    NOp =  1
 Nuclear Repulsion Energy =         848.58861256 hartrees
 There are       51 alpha and       51 beta electrons
 Requested basis set is 6-31G(d)
 There are 80 shells and 234 basis functions

 Total QAlloc Memory Limit   8000 MB
 Mega-Array Size       188 MB
 MEM_STATIC part       192 MB
 A cutoff of  1.0D-08 yielded   2123 shell pairs
 There are     19505 function pairs
 Smallest overlap matrix eigenvalue = 2.97E-04

 Scale SEOQF with 1.000000e-02/1.000000e-01/1.000000e+00

 Standard Electronic Orientation quadrupole field applied
 Nucleus-field energy     =    -0.0000000102 hartrees
 Guess from superposition of atomic densities
 Warning:  Energy on first SCF cycle will be non-variational
 SAD guess density has 102.000000 electrons

 -----------------------------------------------------------------------
  General SCF calculation program by
  Eric Jon Sundstrom, Paul Horn, Yuezhi Mao, Dmitri Zuev, Alec White,
  David Stuck, Shaama M.S., Shane Yost, Joonho Lee, David Small,
  Daniel Levine, Susi Lehtola, Hugh Burton, Evgeny Epifanovsky,
  Bang C. Huynh
 -----------------------------------------------------------------------
 Exchange:     0.2000 Hartree-Fock + 0.0800 Slater + 0.7200 B88
 Correlation:  0.1900 VWN1RPA + 0.8100 LYP
 Using SG-1 standard quadrature grid
 A restricted SCF calculation will be
 performed using DIIS
 SCF converges when DIIS error is below 1.0e-05
 ---------------------------------------
  Cycle       Energy         DIIS error
 ---------------------------------------
    1    -667.2078699840      5.18e-02  
    2    -663.8854825478      5.97e-03  
    3    -663.7436540950      7.49e-03  
    4    -664.1252510948      1.47e-03  
    5    -664.1395154832      4.22e-04  
    6    -664.1404018218      2.27e-04  
    7    -664.1407667715      5.16e-05  
    8    -664.1407818823      2.06e-05  
    9    -664.1407848817      6.10e-06  Convergence criterion met
 ---------------------------------------
 SCF time:   CPU 62.41s  wall 64.00s 
 SCF   energy in the final basis set =     -664.1407848817
 Total energy in the final basis set =     -664.1407848817
 
 --------------------------------------------------------------
 
                    Orbital Energies (a.u.)
 --------------------------------------------------------------
 
 Alpha MOs
 -- Occupied --
-24.7389 -24.7309 -10.3532 -10.1988 -10.1977 -10.1916 -10.1912 -10.1899
-10.1892 -10.1814 -10.1802 -10.1796 -10.1758 -10.1752  -1.2807  -1.2201
 -0.8713  -0.8178  -0.7827  -0.7749  -0.7236  -0.7213  -0.6556  -0.6420
 -0.6071  -0.5970  -0.5689  -0.5500  -0.5172  -0.5100  -0.4847  -0.4787
 -0.4549  -0.4389  -0.4374  -0.4326  -0.4259  -0.4173  -0.4165  -0.4066
 -0.4002  -0.3928  -0.3776  -0.3687  -0.3438  -0.3392  -0.3311  -0.2938
 -0.2632  -0.2362  -0.2152
 -- Virtual --
 -0.0282   0.0036   0.0250   0.0634   0.1021   0.1088   0.1202   0.1220
  0.1271   0.1503   0.1594   0.1644   0.1748   0.1815   0.1823   0.1905
  0.2094   0.2164   0.2224   0.2550   0.2619   0.3059   0.3235   0.3359
  0.3541   0.3724   0.3817   0.4123   0.4163   0.4712   0.4874   0.4999
  0.5111   0.5155   0.5264   0.5352   0.5467   0.5531   0.5629   0.5759
  0.5839   0.6004   0.6051   0.6096   0.6220   0.6318   0.6479   0.6492
  0.6780   0.6970   0.7127   0.7307   0.7354   0.7447   0.7576   0.7679
  0.7739   0.8072   0.8238   0.8426   0.8514   0.8582   0.8638   0.8725
  0.8905   0.9039   0.9246   0.9332   0.9364   0.9534   0.9697   0.9863
  0.9896   0.9934   1.0024   1.0189   1.0413   1.0876   1.1066   1.1262
  1.1333   1.1591   1.1759   1.1922   1.2097   1.2280   1.2493   1.2631
  1.2751   1.2930   1.3246   1.3416   1.3618   1.4090   1.4226   1.4262
  1.4533   1.4593   1.4740   1.4903   1.5255   1.5409   1.5542   1.5637
  1.6289   1.6814   1.6988   1.7286   1.7685   1.7747   1.7833   1.8250
  1.8281   1.8373   1.8446   1.8739   1.8874   1.8906   1.9179   1.9317
  1.9384   1.9566   1.9644   1.9843   1.9999   2.0066   2.0150   2.0410
  2.0639   2.0726   2.1242   2.1436   2.1596   2.1667   2.2111   2.2217
  2.2418   2.2558   2.2577   2.2828   2.3149   2.3226   2.3335   2.3740
  2.3804   2.3974   2.4102   2.4314   2.4914   2.5247   2.5270   2.5456
  2.6206   2.6305   2.6813   2.7195   2.7341   2.7516   2.7676   2.8518
  2.8758   2.9323   2.9634   3.0154   3.0662   3.1292   3.1711   3.2848
  3.4736   4.1031   4.1216   4.1318   4.1385   4.1646   4.2256   4.2535
  4.2806   4.3517   4.4234   4.5391   4.7897   4.8057   5.2521
 --------------------------------------------------------------
 
          Ground-State Mulliken Net Atomic Charges

     Atom                 Charge (a.u.)
  ----------------------------------------
      1 C                    -0.334969
      2 C                    -0.141126
      3 C                     0.114505
      4 C                    -0.256093
      5 C                     0.144731
      6 C                    -0.536468
      7 C                     0.125854
      8 C                    -0.345322
      9 C                     0.565802
     10 F                    -0.234655
     11 F                    -0.250259
     12 C                    -0.243651
     13 C                     0.131155
     14 C                    -0.535631
     15 H                     0.142398
     16 H                     0.147628
     17 H                     0.135231
     18 H                     0.119426
     19 H                     0.153625
     20 H                     0.155903
     21 H                     0.171850
     22 H                     0.168018
     23 H                     0.118963
     24 H                     0.153679
     25 H                     0.160682
     26 H                     0.168726
  ----------------------------------------
  Sum of atomic charges =     0.000000

 -----------------------------------------------------------------
                    Cartesian Multipole Moments
 -----------------------------------------------------------------
    Charge (ESU x 10^10)
                 0.0000
    Dipole Moment (Debye)
         X       1.0792      Y      -0.2075      Z       0.4095
       Tot       1.1728
    Quadrupole Moments (Debye-Ang)
        XX     -80.9036     XY      -0.0738     YY     -75.2421
        XZ      -1.5146     YZ      -1.6337     ZZ     -81.8931
    Octopole Moments (Debye-Ang^2)
       XXX     -14.4516    XXY       3.4083    XYY     -16.7717
       YYY      -1.9437    XXZ       0.9653    XYZ      -4.6180
       YYZ      -2.1652    XZZ     -22.7485    YZZ      -2.8017
       ZZZ      -7.5392
    Hexadecapole Moments (Debye-Ang^3)
      XXXX   -3288.7882   XXXY      15.0148   XXYY    -683.5225
      XYYY      23.9698   YYYY    -821.0135   XXXZ      23.8716
      XXYZ     -21.1795   XYYZ      -0.5320   YYYZ     -11.4151
      XXZZ    -583.0672   XYZZ       4.5012   YYZZ    -166.5117
      XZZZ      21.8134   YZZZ      -9.9563   ZZZZ    -170.8724
 -----------------------------------------------------------------
 Total job time:  67.37s(wall), 62.96s(cpu) 
 Fri Aug 12 13:12:50 2022

        *************************************************************
        *                                                           *
        *  Thank you very much for using Q-Chem.  Have a nice day.  *
        *                                                           *
        *************************************************************


