27
 energy: -49.340305632418 gnorm: 0.000068751984 xtb: 6.5.0 (unknown)
C           -3.31971007210000       -2.07405253250000        1.07264241020000
C           -3.13173430830000       -1.00194719280000        0.31468592790000
C           -1.89239521300000       -0.23502650030000        0.20323491940000
C           -1.99079726430000        1.11903957200000       -0.11730591150000
C           -0.85854109180000        1.90468442090000       -0.21475484000000
Cl          -1.01293507560000        3.57935994520000       -0.61126532230000
C            0.39775057760000        1.37408847230000        0.01445232360000
C            0.52697296080000        0.02206302370000        0.32161677790000
C            1.81910117490000       -0.57628705070000        0.63647753790000
C            3.01517391310000       -0.13854421650000        0.27698671600000
F            3.29776930220000        0.91225126330000       -0.48263808040000
F            4.14968578480000       -0.73942609410000        0.62635573660000
C           -0.61849670410000       -0.79134554080000        0.39363598560000
O           -0.47894647350000       -2.13423788850000        0.66046272050000
C            0.00893197330000       -2.92464242270000       -0.41612909040000
C           -0.99752904050000       -3.05899923110000       -1.55269884290000
H           -4.27607194740000       -2.56869097400000        1.10876964400000
H           -2.53493924640000       -2.48646318430000        1.68097704310000
H           -3.95803205210000       -0.59816681820000       -0.25770516040000
H           -2.96343095950000        1.55677959890000       -0.28114682320000
H            1.26455643360000        2.01171665210000       -0.03145222340000
H            1.79732445930000       -1.47312166700000        1.23912415710000
H            0.21065672760000       -3.90052983810000        0.03199290150000
H            0.94880438410000       -2.50835541060000       -0.80294398890000
H           -1.93445154990000       -3.46461418240000       -1.18024690200000
H           -0.59816097040000       -3.72310638520000       -2.31416524130000
H           -1.19423141240000       -2.08753839090000       -2.00162839600000
