
Running Job 1 of 1 fragments/A015/conf-0/spe_input.inp
qchem fragments/A015/conf-0/spe_input.inp_167384.0 /gpfs/fs0/scratch/a/aspuru/rhickman/descriptor_computation/qchem167384/ 0
/scinet/niagara/software/commercial/qc52/exe/qcprog.exe_s fragments/A015/conf-0/spe_input.inp_167384.0 /gpfs/fs0/scratch/a/aspuru/rhickman/descriptor_computation/qchem167384/
                  Welcome to Q-Chem
     A Quantum Leap Into The Future Of Chemistry


 Q-Chem 5.2, Q-Chem, Inc., Pleasanton, CA (2019)

 License issued to: SRG Alan Aspuru-Guzik, University of Toronto

 Yihan Shao,  Zhengting Gan,  E. Epifanovsky,  A. T. B. Gilbert,  M. Wormit,  
 J. Kussmann,  A. W. Lange,  A. Behn,  Jia Deng,  Xintian Feng,  D. Ghosh,  
 M. Goldey,  P. R. Horn,  L. D. Jacobson,  I. Kaliman,  T. Kus,  A. Landau,  
 Jie Liu,  E. I. Proynov,  R. M. Richard,  R. P. Steele,  E. J. Sundstrom,  
 H. L. Woodcock III,  P. M. Zimmerman,  D. Zuev,  B. Albrecht,  E. Alguire,  
 S. A. Baeppler,  D. Barton,  Z. Benda,  Y. A. Bernard,  E. J. Berquist,  
 K. B. Bravaya,  H. Burton,  D. Casanova,  Chun-Min Chang,  Yunqing Chen,  
 A. Chien,  K. D. Closser,  M. P. Coons,  S. Coriani,  S. Dasgupta,  
 A. L. Dempwolff,  M. Diedenhofen,  Hainam Do,  R. G. Edgar,  Po-Tung Fang,  
 S. Faraji,  S. Fatehi,  Qingguo Feng,  K. D. Fenk,  J. Fosso-Tande,  
 J. Gayvert,  Qinghui Ge,  A. Ghysels,  G. Gidofalvi,  J. Gomes,  
 J. Gonthier,  A. Gunina,  D. Hait,  M. W. D. Hanson-Heine,  
 P. H. P. Harbach,  A. W. Hauser,  M. F. Herbst,  J. E. Herr,  
 E. G. Hohenstein,  Z. C. Holden,  Kerwin Hui,  B. C. Huynh,  T.-C. Jagau,  
 Hyunjun Ji,  B. Kaduk,  K. Khistyaev,  Jaehoon Kim,  P. Klunzinger,  K. Koh,  
 D. Kosenkov,  L. Koulias,  T. Kowalczyk,  C. M. Krauter,  A. Kunitsa,  
 Ka Un Lao,  A. Laurent,  K. V. Lawler,  Joonho Lee,  D. Lefrancois,  
 S. Lehtola,  D. S. Levine,  Yi-Pei Li,  You-Sheng Lin,  Fenglai Liu,  
 E. Livshits,  A. Luenser,  P. Manohar,  E. Mansoor,  S. F. Manzer,  
 Shan-Ping Mao,  Yuezhi Mao,  N. Mardirossian,  A. V. Marenich,  
 T. Markovich,  L. A. Martinez-Martinez,  S. A. Maurer,  N. J. Mayhall,  
 S. C. McKenzie,  J.-M. Mewes,  P. Morgante,  A. F. Morrison,  
 J. W. Mullinax,  K. Nanda,  T. S. Nguyen-Beck,  R. Olivares-Amaya,  
 J. A. Parkhill,  Zheng Pei,  T. M. Perrine,  F. Plasser,  P. Pokhilko,  
 S. Prager,  A. Prociuk,  E. Ramos,  D. R. Rehn,  F. Rob,  M. Scheurer,  
 M. Schneider,  N. Sergueev,  S. M. Sharada,  S. Sharma,  D. W. Small,  
 T. Stauch,  T. Stein,  Yu-Chuan Su,  A. J. W. Thom,  A. Tkatchenko,  
 T. Tsuchimochi,  N. M. Tubman,  L. Vogt,  M. L. Vidal,  O. Vydrov,  
 M. A. Watson,  J. Wenzel,  M. de Wergifosse,  T. A. Wesolowski,  A. White,  
 J. Witte,  A. Yamada,  Jun Yang,  K. Yao,  S. Yeganeh,  S. R. Yost,  
 Zhi-Qiang You,  A. Zech,  Igor Ying Zhang,  Xing Zhang,  Yan Zhao,  
 Ying Zhu,  B. R. Brooks,  G. K. L. Chan,  C. J. Cramer,  M. S. Gordon,  
 W. J. Hehre,  A. Klamt,  M. W. Schmidt,  C. D. Sherrill,  D. G. Truhlar,  
 A. Aspuru-Guzik,  R. Baer,  A. T. Bell,  N. A. Besley,  Jeng-Da Chai,  
 A. E. DePrince, III,  R. A. DiStasio Jr.,  A. Dreuw,  B. D. Dunietz,  
 T. R. Furlani,  Chao-Ping Hsu,  Yousung Jung,  Jing Kong,  D. S. Lambrecht,  
 WanZhen Liang,  C. Ochsenfeld,  V. A. Rassolov,  L. V. Slipchenko,  
 J. E. Subotnik,  T. Van Voorhis,  J. M. Herbert,  A. I. Krylov,  
 P. M. W. Gill,  M. Head-Gordon

 Contributors to earlier versions of Q-Chem not listed above: 
 R. D. Adamson,  B. Austin,  J. Baker,  G. J. O. Beran,  K. Brandhorst,  
 S. T. Brown,  E. F. C. Byrd,  A. K. Chakraborty,  C.-L. Cheng,  
 Siu Hung Chien,  D. M. Chipman,  D. L. Crittenden,  H. Dachsel,  
 R. J. Doerksen,  A. D. Dutoi,  L. Fusti-Molnar,  W. A. Goddard III,  
 A. Golubeva-Zadorozhnaya,  S. R. Gwaltney,  G. Hawkins,  A. Heyden,  
 S. Hirata,  G. Kedziora,  F. J. Keil,  C. Kelley,  Jihan Kim,  R. A. King,  
 R. Z. Khaliullin,  P. P. Korambath,  W. Kurlancheek,  A. M. Lee,  M. S. Lee,  
 S. V. Levchenko,  Ching Yeh Lin,  D. Liotard,  R. C. Lochan,  I. Lotan,  
 P. E. Maslen,  N. Nair,  D. P. O'Neill,  D. Neuhauser,  E. Neuscamman,  
 C. M. Oana,  R. Olson,  B. Peters,  R. Peverati,  P. A. Pieniazek,  
 Y. M. Rhee,  J. Ritchie,  M. A. Rohrdanz,  E. Rosta,  N. J. Russ,  
 H. F. Schaefer III,  N. E. Schultz,  N. Shenvi,  A. C. Simmonett,  A. Sodt,  
 D. Stuck,  K. S. Thanthiriwatte,  V. Vanovschi,  Tao Wang,  A. Warshel,  
 C. F. Williams,  Q. Wu,  X. Xu,  W. Zhang

 Please cite Q-Chem as follows:
 Y. Shao et al., Mol. Phys. 113, 184-215 (2015)
 DOI: 10.1080/00268976.2014.952696

 Q-Chem 5.2.1 for Intel X86 EM64T Linux

 Parts of Q-Chem use Armadillo 8.300.2 (Tropical Shenanigans).
 http://arma.sourceforge.net/

 Q-Chem begins on Mon Feb  7 18:31:08 2022  

Host: 
0

     Scratch files written to /gpfs/fs0/scratch/a/aspuru/rhickman/descriptor_computation/qchem167384//
 Jul1719 |scratch|qcdevops|jenkins|workspace|build_RNUM -1
Processing $rem in /scinet/niagara/software/commercial/qc52/config/preferences:
	 MEM_TOTAL  4000 
NAlpha2: 122
NElect   122
Mult     1

Checking the input file for inconsistencies... 	...done.

--------------------------------------------------------------
User input:
--------------------------------------------------------------
$molecule
0 1
C         3.34103539060000    2.55337095270000    0.49699952500000
N         3.00385827060000    1.21964576560000    0.06016165630000
C         1.66119548960000    0.85571735210000    0.02599642280000
C         0.63845486370000    1.78366720760000    0.01708539360000
C        -0.69262727480000    1.38929645800000   -0.08430930790000
C        -1.05457347630000    0.06193425930000   -0.18197484460000
C        -2.43875156610000   -0.31938201430000   -0.41940728570000
C        -3.51986648440000    0.35641895490000   -0.06112657370000
F        -3.58154401530000    1.48991840450000    0.63357831640000
F        -4.76278284920000   -0.04024556860000   -0.34888611970000
C         1.31887112860000   -0.53282681860000    0.07025127170000
C        -0.03768240010000   -0.93324059950000   -0.06715586590000
C        -0.33317437950000   -2.31177599190000   -0.01874500350000
C         0.64482215850000   -3.24748456200000    0.17813510540000
C         1.96960788650000   -2.84606708690000    0.37842406290000
C         2.29387531810000   -1.51840108280000    0.32784752240000
C         3.85468027480000    0.76781662690000   -1.02286876330000
H         2.76607587950000    2.80312393320000    1.38638114790000
H         3.16828422080000    3.31795258840000   -0.27315250080000
H         4.40119782880000    2.56674398780000    0.75427370280000
H         0.85651501470000    2.83948188470000    0.03461760450000
H        -1.44694016490000    2.15776471690000   -0.14721656310000
H        -2.63069084910000   -1.23527626480000   -0.95725338900000
H        -1.35691771630000   -2.63900635880000   -0.11117402960000
H         0.39214677690000   -4.29712969740000    0.21258486930000
H         2.72844265660000   -3.58514976450000    0.58894515720000
H         3.30542780680000   -1.20630874220000    0.53299682950000
H         3.93023073500000    1.53626874230000   -1.80421449220000
H         3.45378452270000   -0.13557383580000   -1.47370751140000
H         4.85967830960000    0.56601634570000   -0.64526663570000
$end

$rem
BASIS = 6-31G*
GUI = 2
METHOD = B3LYP
PRINT_ORBITALS false
MOLDEN_FORMAT false
--------------------------------------------------------------
 ----------------------------------------------------------------
             Standard Nuclear Orientation (Angstroms)
    I     Atom           X                Y                Z
 ----------------------------------------------------------------
    1      C       3.2894382371    -2.4404485146    -0.5142307709
    2      N       2.9090962867    -1.1193836062    -0.0743829369
    3      C       1.5552395354    -0.7998337063    -0.0381302808
    4      C       0.5635477119    -1.7609011489    -0.0300415976
    5      C      -0.7796623630    -1.4106771855     0.0734895735
    6      C      -1.1849163866    -0.0961183315     0.1741782624
    7      C      -2.5806182655     0.2390460829     0.4137744418
    8      C      -3.6393324501    -0.4712046055     0.0552361311
    9      F      -3.6644855720    -1.6047495781    -0.6416735617
   10      F      -4.8942989658    -0.1161580203     0.3450470298
   11      C       1.1674337946     0.5767978743    -0.0792590105
   12      C      -0.2013936412     0.9321538633     0.0603223844
   13      C      -0.5420679620     2.3003289754     0.0149702138
   14      C       0.4044465338     3.2680506434    -0.1810262561
   15      C       1.7414885625     2.9107714655    -0.3834591671
   16      C       2.1092538752     1.5943793556    -0.3358686222
   17      C       3.7457811382    -0.6419757066     1.0086880209
   18      H       2.7220365060    -2.7072070820    -1.4035281363
   19      H       3.1427294547    -3.2118069413     0.2545636736
   20      H       4.3491899221    -2.4184757736    -0.7726041457
   21      H       0.8161584602    -2.8089447443    -0.0499079544
   22      H      -1.5082528819    -2.2036362984     0.1356218916
   23      H      -2.8019647839     1.1470796124     0.9536468576
   24      H      -1.5759091784     2.5935644016     0.1090902520
   25      H       0.1173859476     4.3088930027    -0.2131190565
   26      H       2.4754049012     3.6747999056    -0.5932683524
   27      H       3.1302920478     1.3160949819    -0.5426660160
   28      H       3.8473790214    -1.4090664176     1.7884170668
   29      H       3.3159081251     0.2468665808     1.4617397725
   30      H       4.7431993687    -0.4065219665     0.6304735578
 ----------------------------------------------------------------
 Molecular Point Group                 C1    NOp =  1
 Largest Abelian Subgroup              C1    NOp =  1
 Nuclear Repulsion Energy =        1156.95191207 hartrees
 There are       61 alpha and       61 beta electrons
 Requested basis set is 6-31G(d)
 There are 94 shells and 281 basis functions

 Total QAlloc Memory Limit   4000 MB
 Mega-Array Size       188 MB
 MEM_STATIC part       192 MB
 A cutoff of  1.0D-08 yielded   2708 shell pairs
 There are     25876 function pairs
 Smallest overlap matrix eigenvalue = 2.30E-04

 Scale SEOQF with 1.000000e-01/1.000000e-01/1.000000e-01

 Standard Electronic Orientation quadrupole field applied
 Nucleus-field energy     =     0.0000000535 hartrees
 Guess from superposition of atomic densities
 Warning:  Energy on first SCF cycle will be non-variational
 SAD guess density has 122.000000 electrons

 -----------------------------------------------------------------------
  General SCF calculation program by
  Eric Jon Sundstrom, Paul Horn, Yuezhi Mao, Dmitri Zuev, Alec White,
  David Stuck, Shaama M.S., Shane Yost, Joonho Lee, David Small,
  Daniel Levine, Susi Lehtola, Hugh Burton, Evgeny Epifanovsky,
  Bang C. Huynh
 -----------------------------------------------------------------------
 Exchange:     0.2000 Hartree-Fock + 0.0800 Slater + 0.7200 B88
 Correlation:  0.1900 VWN1RPA + 0.8100 LYP
 Using SG-1 standard quadrature grid
 A restricted SCF calculation will be
 performed using DIIS
 SCF converges when DIIS error is below 1.0e-05
 ---------------------------------------
  Cycle       Energy         DIIS error
 ---------------------------------------
    1    -799.8038757205      4.84e-02  
    2    -795.4583593686      4.99e-03  
    3    -795.3011198359      6.38e-03  
    4    -795.7003543273      1.28e-03  
    5    -795.7154266835      4.34e-04  
    6    -795.7168109500      2.22e-04  
    7    -795.7173226080      5.90e-05  
    8    -795.7173525130      2.26e-05  
    9    -795.7173575999      6.75e-06  Convergence criterion met
 ---------------------------------------
 SCF time:   CPU 59.17s  wall 60.00s 
 SCF   energy in the final basis set =     -795.7173575999
 Total energy in the final basis set =     -795.7173575999
 
 --------------------------------------------------------------
 
                    Orbital Energies (a.u.)
 --------------------------------------------------------------
 
 Alpha MOs
 -- Occupied --
-24.7336 -24.7252 -14.3441 -10.3462 -10.2203 -10.2113 -10.2111 -10.1945
-10.1936 -10.1932 -10.1902 -10.1847 -10.1835 -10.1832 -10.1826 -10.1823
-10.1784  -1.2741  -1.2140  -0.9497  -0.8718  -0.8271  -0.7970  -0.7571
 -0.7435  -0.7223  -0.7134  -0.6642  -0.6241  -0.6166  -0.6135  -0.5774
 -0.5634  -0.5233  -0.5190  -0.5085  -0.5062  -0.4914  -0.4694  -0.4625
 -0.4573  -0.4400  -0.4324  -0.4273  -0.4218  -0.4137  -0.4099  -0.4027
 -0.4003  -0.3864  -0.3848  -0.3778  -0.3756  -0.3360  -0.3335  -0.3282
 -0.3037  -0.2517  -0.2429  -0.2366  -0.1820
 -- Virtual --
 -0.0375  -0.0032   0.0138   0.0693   0.0918   0.0994   0.1090   0.1160
  0.1240   0.1382   0.1501   0.1568   0.1573   0.1624   0.1682   0.1774
  0.1809   0.1896   0.2020   0.2124   0.2201   0.2285   0.2479   0.2743
  0.2848   0.3019   0.3080   0.3338   0.3342   0.3657   0.3857   0.4184
  0.4237   0.4787   0.4844   0.4997   0.5106   0.5155   0.5202   0.5246
  0.5424   0.5484   0.5566   0.5596   0.5691   0.5762   0.5788   0.5877
  0.5945   0.6060   0.6128   0.6167   0.6212   0.6265   0.6292   0.6370
  0.6525   0.6660   0.6696   0.6859   0.7202   0.7239   0.7392   0.7566
  0.7722   0.7903   0.7957   0.8092   0.8277   0.8364   0.8391   0.8459
  0.8528   0.8650   0.8809   0.8899   0.8956   0.9089   0.9143   0.9270
  0.9379   0.9601   0.9651   0.9775   0.9874   0.9994   1.0154   1.0318
  1.0450   1.0512   1.0700   1.0883   1.0950   1.1063   1.1282   1.1540
  1.1744   1.1822   1.2003   1.2101   1.2153   1.2466   1.2561   1.2690
  1.2859   1.3173   1.3248   1.3584   1.3644   1.3695   1.3879   1.4016
  1.4301   1.4421   1.4484   1.4583   1.4604   1.4909   1.5003   1.5138
  1.5356   1.5418   1.5692   1.6084   1.6219   1.6491   1.6980   1.7246
  1.7329   1.7613   1.7766   1.7981   1.8069   1.8148   1.8468   1.8480
  1.8602   1.8709   1.8781   1.9112   1.9286   1.9373   1.9453   1.9524
  1.9809   1.9840   2.0005   2.0104   2.0139   2.0368   2.0436   2.0508
  2.0775   2.0817   2.0902   2.1234   2.1305   2.1436   2.1558   2.1729
  2.2080   2.2190   2.2318   2.2424   2.2559   2.2613   2.2834   2.3043
  2.3165   2.3199   2.3472   2.3668   2.3946   2.4197   2.4711   2.4888
  2.5187   2.5254   2.5512   2.5698   2.6137   2.6151   2.6231   2.6708
  2.6812   2.6931   2.7025   2.7519   2.7610   2.7858   2.8106   2.8338
  2.8674   2.9346   2.9570   2.9805   3.0421   3.0472   3.1369   3.1724
  3.2893   3.4339   3.5308   4.0963   4.1006   4.1050   4.1140   4.1330
  4.1568   4.1894   4.2623   4.2898   4.3355   4.3513   4.3773   4.5116
  4.5568   4.7632   4.8647   5.2451
 --------------------------------------------------------------
 
          Ground-State Mulliken Net Atomic Charges

     Atom                 Charge (a.u.)
  ----------------------------------------
      1 C                    -0.308694
      2 N                    -0.461406
      3 C                     0.271612
      4 C                    -0.197509
      5 C                    -0.214530
      6 C                     0.136044
      7 C                    -0.314359
      8 C                     0.543916
      9 F                    -0.240319
     10 F                    -0.254201
     11 C                     0.086419
     12 C                     0.055960
     13 C                    -0.192850
     14 C                    -0.132304
     15 C                    -0.131457
     16 C                    -0.197441
     17 C                    -0.323366
     18 H                     0.167015
     19 H                     0.134931
     20 H                     0.154847
     21 H                     0.126633
     22 H                     0.132830
     23 H                     0.164079
     24 H                     0.126287
     25 H                     0.126695
     26 H                     0.125740
     27 H                     0.147173
     28 H                     0.139363
     29 H                     0.176408
     30 H                     0.152486
  ----------------------------------------
  Sum of atomic charges =     0.000000

 -----------------------------------------------------------------
                    Cartesian Multipole Moments
 -----------------------------------------------------------------
    Charge (ESU x 10^10)
                 0.0000
    Dipole Moment (Debye)
         X       2.5003      Y      -0.1518      Z       0.6150
       Tot       2.5793
    Quadrupole Moments (Debye-Ang)
        XX     -93.6212     XY      -4.4601     YY     -88.4085
        XZ      -0.2508     YZ       0.1456     ZZ     -99.5512
    Octopole Moments (Debye-Ang^2)
       XXX      10.5162    XXY      -4.3745    XYY      -9.9029
       YYY      -7.5504    XXZ       3.0870    XYZ      -0.2362
       YYZ      -4.1278    XZZ     -19.8677    YZZ      -9.6632
       ZZZ      -1.7703
    Hexadecapole Moments (Debye-Ang^3)
      XXXX   -3789.8024   XXXY      -5.8740   XXYY    -879.0000
      XYYY      35.7458   YYYY   -1666.4811   XXXZ      12.4001
      XXYZ      -0.3400   XYYZ     -19.0487   YYYZ       0.2956
      XXZZ    -656.8106   XYZZ       6.4763   YYZZ    -349.2473
      XZZZ      10.0657   YZZZ      15.3441   ZZZZ    -212.8269
 -----------------------------------------------------------------
Archival summary:
1\1\nia1977.scinet.local\SP\ProcedureUnspecified\6-31G*\211413\rhickman\MonFeb718:32:082022MonFeb718:32:082022\0\\#,ProcedureUnspecified,6-31G*,\\0,1\F\C,1,1.33088\C,2,1.32434,1,127.855\H,3,1.07934,2,115.002,1,178.184,0\F,2,1.33603,1,108.795,3,179.112,0\C,3,1.45524,2,126.772,1,-2.98997,0\C,6,1.37929,3,120.885,2,-28.6449,0\H,7,1.07865,6,119.866,3,2.30815,0\C,7,1.39197,6,121.921,3,-173.878,0\H,9,1.07824,7,118.164,6,176.633,0\C,9,1.381,7,121.217,6,-0.0832227,0\N,11,1.39153,9,122.615,7,176.772,0\C,6,1.42745,3,120.533,2,152.396,0\C,13,1.41068,6,122.332,3,-7.59717,0\H,14,1.07874,13,119.491,6,2.55575,0\C,14,1.36777,13,121.58,6,-175.708,0\H,16,1.08018,14,120.139,13,179.913,0\C,16,1.39868,14,120.101,13,1.96561,0\H,18,1.08,16,119.803,14,176.547,0\C,18,1.36763,16,119.861,14,-2.41536,0\H,20,1.0783,18,119.76,16,176.833,0\C,20,1.41009,18,121.422,16,-0.299571,0\C,12,1.44338,11,118.326,9,18.8489,0\H,23,1.0881,12,109.635,11,44.7102,0\H,23,1.09101,12,108.041,11,162.822,0\H,23,1.09889,12,113.209,11,-77.5863,0\C,12,1.44948,11,117.807,9,-121.375,0\H,27,1.08632,12,110.652,11,-25.299,0\H,27,1.0924,12,109.836,11,-145.972,0\H,27,1.09851,12,110.718,11,94.6324,0\\\@

 Total job time:  59.64s(wall), 59.41s(cpu) 
 Mon Feb  7 18:32:08 2022

        *************************************************************
        *                                                           *
        *  Thank you very much for using Q-Chem.  Have a nice day.  *
        *                                                           *
        *************************************************************


