
Running Job 1 of 1 tidas/B035/conf-3/spe_input.inp
qchem tidas/B035/conf-3/spe_input.inp_151869.0 /home/a/aspuru/seifridm/acdc_laser/descriptor_computation/qchem151869/ 0
/gpfs/fs1/scinet/niagara/software/commercial/qc54/exe/qcprog.exe_s tidas/B035/conf-3/spe_input.inp_151869.0 /home/a/aspuru/seifridm/acdc_laser/descriptor_computation/qchem151869/
                  Welcome to Q-Chem
     A Quantum Leap Into The Future Of Chemistry


 Q-Chem 5.4, Q-Chem, Inc., Pleasanton, CA (2021)

 License issued to: SRG Alan Aspuru-Guzik, University of Toronto

 E. Epifanovsky,  A. T. B. Gilbert,  Xintian Feng,  Joonho Lee,  Yuezhi Mao,  
 N. Mardirossian,  P. Pokhilko,  A. White,  M. Wormit,  M. P. Coons,  
 A. L. Dempwolff,  Zhengting Gan,  D. Hait,  P. R. Horn,  L. D. Jacobson,  
 I. Kaliman,  J. Kussmann,  A. W. Lange,  Ka Un Lao,  D. S. Levine,  Jie Liu,  
 S. C. McKenzie,  A. F. Morrison,  K. Nanda,  F. Plasser,  D. R. Rehn,  
 M. L. Vidal,  Zhi-Qiang You,  Ying Zhu,  B. Alam,  B. Albrecht,  
 A. Aldossary,  E. Alguire,  J. H. Andersen,  D. Barton,  K. Begam,  A. Behn,  
 Y. A. Bernard,  E. J. Berquist,  H. Burton,  A. Carreras,  K. Carter-Fenk,  
 Romit Chakraborty,  A. D. Chien,  K. D. Closser,  V. Cofer-Shabica,  
 S. Dasgupta,  Jia Deng,  M. de Wergifosse,  M. Diedenhofen,  Hainam Do,  
 S. Ehlert,  Po-Tung Fang,  S. Fatehi,  Qingguo Feng,  T. Friedhoff,  
 J. Gayvert,  Qinghui Ge,  G. Gidofalvi,  M. Goldey,  J. Gomes,  
 C. Gonzalez-Espinoza,  S. Gulania,  A. Gunina,  M. W. D. Hanson-Heine,  
 P. H. P. Harbach,  A. W. Hauser,  M. F. Herbst,  M. Hernandez Vera,  
 M. Hodecker,  Z. C. Holden,  S. Houck,  Xunkun Huang,  Kerwin Hui,  
 B. C. Huynh,  M. Ivanov,  Hyunjun Ji,  Hanjie Jiang,  B. Kaduk,  S. Kaehler,  
 K. Khistyaev,  Jaehoon Kim,  P. Klunzinger,  Z. Koczor-Benda,  
 Joong Hoon Koh,  D. Kosenkov,  L. Koulias,  T. Kowalczyk,  C. M. Krauter,  
 K. Kue,  A. Kunitsa,  T. Kus,  A. Landau,  K. V. Lawler,  D. Lefrancois,  
 S. Lehtola,  Rain Li,  Yi-Pei Li,  Jiashu Liang,  M. Liebenthal,  
 Hung-Hsuan Lin,  You-Sheng Lin,  Fenglai Liu,  Kuan-Yu Liu,  
 M. Loipersberger,  A. Luenser,  A. Manjanath,  P. Manohar,  E. Mansoor,  
 S. F. Manzer,  Shan-Ping Mao,  A. V. Marenich,  T. Markovich,  S. Mason,  
 S. A. Maurer,  P. F. McLaughlin,  M. F. S. J. Menger,  J.-M. Mewes,  
 S. A. Mewes,  P. Morgante,  J. W. Mullinax,  K. J. Oosterbaan,  G. Paran,  
 Alexander C. Paul,  Suranjan K. Paul,  F. Pavosevic,  Zheng Pei,  S. Prager,  
 E. I. Proynov,  E. Ramos,  B. Rana,  A. E. Rask,  A. Rettig,  R. M. Richard,  
 F. Rob,  E. Rossomme,  T. Scheele,  M. Scheurer,  M. Schneider,  
 N. Sergueev,  S. M. Sharada,  W. Skomorowski,  D. W. Small,  C. J. Stein,  
 Yu-Chuan Su,  E. J. Sundstrom,  Zhen Tao,  J. Thirman,  T. Tsuchimochi,  
 N. M. Tubman,  S. P. Veccham,  O. Vydrov,  J. Wenzel,  J. Witte,  A. Yamada,  
 Kun Yao,  S. Yeganeh,  S. R. Yost,  A. Zech,  Igor Ying Zhang,  Xing Zhang,  
 Yu Zhang,  D. Zuev,  A. Aspuru-Guzik,  A. T. Bell,  N. A. Besley,  
 K. B. Bravaya,  B. R. Brooks,  D. Casanova,  Jeng-Da Chai,  S. Coriani,  
 C. J. Cramer,  A. E. DePrince, III,  R. A. DiStasio Jr.,  A. Dreuw,  
 B. D. Dunietz,  T. R. Furlani,  W. A. Goddard III,  S. Grimme,  
 S. Hammes-Schiffer,  T. Head-Gordon,  W. J. Hehre,  Chao-Ping Hsu,  
 T.-C. Jagau,  Yousung Jung,  A. Klamt,  Jing Kong,  D. S. Lambrecht,  
 WanZhen Liang,  N. J. Mayhall,  C. W. McCurdy,  J. B. Neaton,  T. Neudecker,  
 C. Ochsenfeld,  J. A. Parkhill,  R. Peverati,  V. A. Rassolov,  Yihan Shao,  
 L. V. Slipchenko,  R. P. Steele,  J. E. Subotnik,  A. J. W. Thom,  
 A. Tkatchenko,  D. G. Truhlar,  T. Van Voorhis,  T. A. Wesolowski,  
 K. B. Whaley,  H. L. Woodcock III,  P. M. Zimmerman,  S. Faraji,  
 P. M. W. Gill,  M. Head-Gordon,  J. M. Herbert,  A. I. Krylov

 Additional authors since Version 5.4.0: 
 Chandrima Chakravarty,  L. Cunha,  R. Kang,  Yongbin Kim,  S. Kotaru,  
 Shaozhi Li,  Xiangyuan Li,  F. Matz,  A. Molle,  V. Parravicini,  
 Haisheng Ren,  Hengyuan Shen,  Yingli Su,  Hung-Yi Tsai,  C. Utku,  
 Fang Wang,  Jeff Yang,  F. Zeller

 Contributors to earlier versions of Q-Chem not listed above: 
 R. D. Adamson,  B. Austin,  R. Baer,  J. Baker,  G. J. O. Beran,  
 K. Brandhorst,  S. T. Brown,  E. F. C. Byrd,  Arup K. Chakraborty,  
 G. K. L. Chan,  Chun-Min Chang,  Yunqing Chen,  C.-L. Cheng,  
 Siu Hung Chien,  D. M. Chipman,  D. L. Crittenden,  H. Dachsel,  
 R. J. Doerksen,  A. D. Dutoi,  R. G. Edgar,  J. Fosso-Tande,  
 L. Fusti-Molnar,  D. Ghosh,  A. Ghysels,  A. Golubeva-Zadorozhnaya,  
 J. Gonthier,  M. S. Gordon,  S. R. Gwaltney,  G. Hawkins,  J. E. Herr,  
 A. Heyden,  S. Hirata,  E. G. Hohenstein,  G. Kedziora,  F. J. Keil,  
 C. Kelley,  Jihan Kim,  R. A. King,  R. Z. Khaliullin,  P. P. Korambath,  
 W. Kurlancheek,  A. Laurent,  A. M. Lee,  M. S. Lee,  S. V. Levchenko,  
 Ching Yeh Lin,  D. Liotard,  E. Livshits,  R. C. Lochan,  I. Lotan,  
 L. A. Martinez-Martinez,  P. E. Maslen,  N. Nair,  D. P. O'Neill,  
 D. Neuhauser,  E. Neuscamman,  C. M. Oana,  R. Olivares-Amaya,  R. Olson,  
 T. M. Perrine,  B. Peters,  P. A. Pieniazek,  A. Prociuk,  Y. M. Rhee,  
 J. Ritchie,  M. A. Rohrdanz,  E. Rosta,  N. J. Russ,  H. F. Schaefer III,  
 M. W. Schmidt,  N. E. Schultz,  S. Sharma,  N. Shenvi,  C. D. Sherrill,  
 A. C. Simmonett,  A. Sodt,  T. Stein,  D. Stuck,  K. S. Thanthiriwatte,  
 V. Vanovschi,  L. Vogt,  Tao Wang,  A. Warshel,  M. A. Watson,  
 C. F. Williams,  Q. Wu,  X. Xu,  Jun Yang,  W. Zhang,  Yan Zhao

   Please cite Q-Chem as follows:
  "Software for the frontiers of quantum chemistry:
   An overview of developments in the Q-Chem 5 package"
   J. Chem. Phys. 155, 084801 (2021)
   https://doi.org/10.1063/5.0055522 (open access)

 Q-Chem 5.4.2 for Intel X86 EM64T Linux

 Parts of Q-Chem use Armadillo 9.900.5 (Nocturnal Misbehaviour).
 http://arma.sourceforge.net/

 Q-Chem begins on Fri Aug 12 13:13:15 2022  

 Host: 
0

     Scratch files written to /home/a/aspuru/seifridm/acdc_laser/descriptor_computation/qchem151869//
 Dec1321 |scratch|qcdevops|jenkins|workspace|build_RNUM 6959   
 Processing $rem in /gpfs/fs1/scinet/niagara/software/commercial/qc54/config/preferences:
 Processing $rem in /home/a/aspuru/seifridm/.qchemrc:

 Checking the input file for inconsistencies... 	...done.

--------------------------------------------------------------
User input:
--------------------------------------------------------------
$molecule
0 1
C           -1.14410583370000       -3.80696870560000       -0.13395046930000
C           -1.21880460510000       -2.53940147700000        0.25019197260000
C           -0.14115430770000       -1.56122930870000        0.10838932340000
C            1.18551889150000       -1.95792483030000        0.23232517070000
C            2.23314405560000       -1.05953768260000        0.15463250280000
C            1.96607135010000        0.28988622070000       -0.05273367140000
O            2.90416846480000        1.26827991430000       -0.14980810970000
C            4.26092954530000        0.91547811600000       -0.02955161410000
C            0.64240317090000        0.70628928740000       -0.18238713420000
C           -0.41007525870000       -0.19419418490000       -0.10490439050000
C           -1.78696683570000        0.25018998750000       -0.30364659440000
C           -2.27442180650000        1.45281510460000       -0.04544880150000
F           -1.63854483730000        2.49345111740000        0.47797933490000
F           -3.54450286120000        1.79113052640000       -0.26878406020000
H           -1.96366929140000       -4.48969474760000        0.01089068790000
H           -0.27151847710000       -4.20746197160000       -0.62212251770000
H           -2.12770181600000       -2.17907233590000        0.71419381120000
H            1.40439048750000       -2.99843625780000        0.41870111710000
H            3.24380152350000       -1.41988868380000        0.26279489190000
H            4.81723312080000        1.84494667470000       -0.13925242390000
H            4.56634676360000        0.21693158880000       -0.81533666320000
H            4.47762463030000        0.47878937060000        0.95069875280000
H            0.46566034550000        1.75345229440000       -0.36394712210000
H           -2.49016892890000       -0.46319656750000       -0.70569013110000
$end

$rem
BASIS = 6-31G*
GUI = 2
METHOD = B3LYP
PRINT_ORBITALS false
MOLDEN_FORMAT false
$end
--------------------------------------------------------------
 ----------------------------------------------------------------
             Standard Nuclear Orientation (Angstroms)
    I     Atom           X                Y                Z
 ----------------------------------------------------------------
    1      C      -0.8573261788    -3.8320151863    -0.1560921980
    2      C      -1.0526765733    -2.5811734796     0.2402728474
    3      C      -0.0775096616    -1.5007422099     0.0989338523
    4      C       1.2827277723    -1.7662531770     0.2086938555
    5      C       2.2364090589    -0.7687040680     0.1309643189
    6      C       1.8363867425     0.5496567669    -0.0618575843
    7      O       2.6730510478     1.6162285524    -0.1573632349
    8      C       4.0588900986     1.3973832783    -0.0511171309
    9      C       0.4771554320     0.8351223189    -0.1771773415
   10      C      -0.4811516283    -0.1649877816    -0.0996385177
   11      C      -1.8967007765     0.1436742375    -0.2833625991
   12      C      -2.4975333157     1.2904085922    -0.0102578560
   13      F      -1.9622708266     2.3840423085     0.5176618417
   14      F      -3.7965988332     1.5042140383    -0.2203955739
   15      H      -1.6046289383    -4.5931180511    -0.0110436360
   16      H       0.0460254219    -4.1407742256    -0.6548298455
   17      H      -1.9884323695    -2.3157465097     0.7147605182
   18      H       1.6042838080    -2.7817637305     0.3837505074
   19      H       3.2784630471    -1.0289508807     0.2277917224
   20      H       4.5203088218     2.3778784659    -0.1566713173
   21      H       4.4244638822     0.7388137665    -0.8456906506
   22      H       4.3260044258     0.9758927648     0.9233264464
   23      H       0.1969127720     1.8613491408    -0.3476912125
   24      H      -2.5300081350    -0.6319320280    -0.6863629424
 ----------------------------------------------------------------
 Molecular Point Group                 C1    NOp =  1
 Largest Abelian Subgroup              C1    NOp =  1
 Nuclear Repulsion Energy =         845.14047651 hartrees
 There are       51 alpha and       51 beta electrons
 Requested basis set is 6-31G(d)
 There are 76 shells and 230 basis functions

 Total QAlloc Memory Limit   8000 MB
 Mega-Array Size       188 MB
 MEM_STATIC part       192 MB
 A cutoff of  1.0D-08 yielded   1834 shell pairs
 There are     18093 function pairs
 Smallest overlap matrix eigenvalue = 3.41E-04

 Scale SEOQF with 1.000000e-01/1.000000e-01/1.000000e+00

 Standard Electronic Orientation quadrupole field applied
 Nucleus-field energy     =     0.0000000354 hartrees
 Guess from superposition of atomic densities
 Warning:  Energy on first SCF cycle will be non-variational
 SAD guess density has 102.000000 electrons

 -----------------------------------------------------------------------
  General SCF calculation program by
  Eric Jon Sundstrom, Paul Horn, Yuezhi Mao, Dmitri Zuev, Alec White,
  David Stuck, Shaama M.S., Shane Yost, Joonho Lee, David Small,
  Daniel Levine, Susi Lehtola, Hugh Burton, Evgeny Epifanovsky,
  Bang C. Huynh
 -----------------------------------------------------------------------
 Exchange:     0.2000 Hartree-Fock + 0.0800 Slater + 0.7200 B88
 Correlation:  0.1900 VWN1RPA + 0.8100 LYP
 Using SG-1 standard quadrature grid
 A restricted SCF calculation will be
 performed using DIIS
 SCF converges when DIIS error is below 1.0e-05
 ---------------------------------------
  Cycle       Energy         DIIS error
 ---------------------------------------
    1    -703.1454035127      5.26e-02  
    2    -699.8056402145      5.82e-03  
    3    -699.6338271793      7.71e-03  
    4    -700.0164314227      1.60e-03  
    5    -700.0320812285      5.71e-04  
    6    -700.0337748616      2.65e-04  
    7    -700.0342509019      5.20e-05  
    8    -700.0342668004      1.89e-05  
    9    -700.0342693111      4.53e-06  Convergence criterion met
 ---------------------------------------
 SCF time:   CPU 41.28s  wall 42.00s 
 SCF   energy in the final basis set =     -700.0342693111
 Total energy in the final basis set =     -700.0342693111
 
 --------------------------------------------------------------
 
                    Orbital Energies (a.u.)
 --------------------------------------------------------------
 
 Alpha MOs
 -- Occupied --
-24.7401 -24.7319 -19.1795 -10.3547 -10.2465 -10.2414 -10.2045 -10.1990
-10.1895 -10.1886 -10.1882 -10.1858 -10.1809 -10.1782  -1.2821  -1.2213
 -1.0703  -0.8689  -0.8050  -0.7924  -0.7470  -0.7330  -0.6930  -0.6446
 -0.6226  -0.6001  -0.5724  -0.5574  -0.5399  -0.5181  -0.5129  -0.4885
 -0.4761  -0.4729  -0.4492  -0.4390  -0.4369  -0.4342  -0.4280  -0.4162
 -0.4054  -0.3908  -0.3828  -0.3638  -0.3478  -0.3320  -0.3267  -0.2921
 -0.2742  -0.2283  -0.2069
 -- Virtual --
 -0.0286  -0.0130   0.0530   0.0640   0.0969   0.1084   0.1159   0.1330
  0.1410   0.1468   0.1541   0.1613   0.1663   0.1713   0.1858   0.2027
  0.2055   0.2218   0.2591   0.2861   0.3144   0.3319   0.3449   0.3642
  0.3790   0.4172   0.4387   0.4659   0.4902   0.5059   0.5101   0.5261
  0.5331   0.5452   0.5539   0.5642   0.5672   0.5704   0.5782   0.5814
  0.5979   0.6135   0.6225   0.6252   0.6492   0.6536   0.6723   0.6944
  0.6955   0.7158   0.7252   0.7408   0.7885   0.7988   0.8254   0.8346
  0.8491   0.8580   0.8597   0.8654   0.8721   0.8850   0.9150   0.9336
  0.9420   0.9627   0.9649   0.9867   1.0067   1.0211   1.0305   1.0475
  1.0579   1.0728   1.0931   1.1108   1.1561   1.1800   1.1850   1.1930
  1.2224   1.2303   1.2455   1.2557   1.2911   1.3065   1.3357   1.3708
  1.3732   1.3820   1.4081   1.4248   1.4436   1.4488   1.4693   1.4894
  1.4993   1.5206   1.5396   1.5690   1.6472   1.6532   1.6849   1.6998
  1.7270   1.7560   1.7779   1.8026   1.8257   1.8399   1.8429   1.8528
  1.8642   1.8905   1.9005   1.9392   1.9506   1.9695   1.9809   2.0033
  2.0107   2.0279   2.0423   2.0474   2.0578   2.0832   2.0983   2.1230
  2.1399   2.1480   2.1816   2.2107   2.2299   2.2331   2.2617   2.2756
  2.3102   2.3243   2.3347   2.3654   2.3891   2.4437   2.4755   2.5232
  2.5285   2.5606   2.5669   2.5934   2.6453   2.6506   2.6900   2.6980
  2.7420   2.7622   2.8152   2.8275   2.9095   2.9707   3.0105   3.0302
  3.0632   3.1370   3.1930   3.3246   3.4835   4.0574   4.0936   4.1063
  4.1199   4.1353   4.2070   4.2521   4.3104   4.3587   4.4211   4.5428
  4.7640   4.8210   5.2521
 --------------------------------------------------------------
 
          Ground-State Mulliken Net Atomic Charges

     Atom                 Charge (a.u.)
  ----------------------------------------
      1 C                    -0.341627
      2 C                    -0.133082
      3 C                     0.099727
      4 C                    -0.197823
      5 C                    -0.194528
      6 C                     0.385947
      7 O                    -0.504141
      8 C                    -0.215163
      9 C                    -0.252418
     10 C                     0.130818
     11 C                    -0.321872
     12 C                     0.556786
     13 F                    -0.233653
     14 F                    -0.249013
     15 H                     0.141476
     16 H                     0.142266
     17 H                     0.137621
     18 H                     0.132056
     19 H                     0.129998
     20 H                     0.170650
     21 H                     0.151266
     22 H                     0.151778
     23 H                     0.141975
     24 H                     0.170957
  ----------------------------------------
  Sum of atomic charges =     0.000000

 -----------------------------------------------------------------
                    Cartesian Multipole Moments
 -----------------------------------------------------------------
    Charge (ESU x 10^10)
                 0.0000
    Dipole Moment (Debye)
         X       2.0155      Y      -1.0548      Z      -0.0442
       Tot       2.2753
    Quadrupole Moments (Debye-Ang)
        XX     -67.6613     XY       3.0974     YY     -77.8782
        XZ       0.1658     YZ      -0.1375     ZZ     -81.4838
    Octopole Moments (Debye-Ang^2)
       XXX      36.1206    XXY      11.4409    XYY      -5.3696
       YYY      22.6820    XXZ       3.0614    XYZ       1.7492
       YYZ      -2.6237    XZZ     -11.7934    YZZ      17.5943
       ZZZ       2.2873
    Hexadecapole Moments (Debye-Ang^3)
      XXXX   -2158.4133   XXXY      43.3303   XXYY    -636.8726
      XYYY     -38.8343   YYYY   -1576.8294   XXXZ      -6.9197
      XXYZ      -1.3209   XYYZ      -3.5390   YYYZ      14.0798
      XXZZ    -412.1563   XYZZ     -23.0792   YYZZ    -305.8746
      XZZZ      -5.0152   YZZZ       8.7587   ZZZZ    -111.0264
 -----------------------------------------------------------------
 Total job time:  42.38s(wall), 41.72s(cpu) 
 Fri Aug 12 13:13:58 2022

        *************************************************************
        *                                                           *
        *  Thank you very much for using Q-Chem.  Have a nice day.  *
        *                                                           *
        *************************************************************


