
Running Job 1 of 1 fragments/B017/conf-2/spe_input.inp
qchem fragments/B017/conf-2/spe_input.inp_48945.0 /gpfs/fs0/scratch/a/aspuru/rhickman/descriptor_computation/qchem48945/ 0
/scinet/niagara/software/commercial/qc52/exe/qcprog.exe_s fragments/B017/conf-2/spe_input.inp_48945.0 /gpfs/fs0/scratch/a/aspuru/rhickman/descriptor_computation/qchem48945/
                  Welcome to Q-Chem
     A Quantum Leap Into The Future Of Chemistry


 Q-Chem 5.2, Q-Chem, Inc., Pleasanton, CA (2019)

 License issued to: SRG Alan Aspuru-Guzik, University of Toronto

 Yihan Shao,  Zhengting Gan,  E. Epifanovsky,  A. T. B. Gilbert,  M. Wormit,  
 J. Kussmann,  A. W. Lange,  A. Behn,  Jia Deng,  Xintian Feng,  D. Ghosh,  
 M. Goldey,  P. R. Horn,  L. D. Jacobson,  I. Kaliman,  T. Kus,  A. Landau,  
 Jie Liu,  E. I. Proynov,  R. M. Richard,  R. P. Steele,  E. J. Sundstrom,  
 H. L. Woodcock III,  P. M. Zimmerman,  D. Zuev,  B. Albrecht,  E. Alguire,  
 S. A. Baeppler,  D. Barton,  Z. Benda,  Y. A. Bernard,  E. J. Berquist,  
 K. B. Bravaya,  H. Burton,  D. Casanova,  Chun-Min Chang,  Yunqing Chen,  
 A. Chien,  K. D. Closser,  M. P. Coons,  S. Coriani,  S. Dasgupta,  
 A. L. Dempwolff,  M. Diedenhofen,  Hainam Do,  R. G. Edgar,  Po-Tung Fang,  
 S. Faraji,  S. Fatehi,  Qingguo Feng,  K. D. Fenk,  J. Fosso-Tande,  
 J. Gayvert,  Qinghui Ge,  A. Ghysels,  G. Gidofalvi,  J. Gomes,  
 J. Gonthier,  A. Gunina,  D. Hait,  M. W. D. Hanson-Heine,  
 P. H. P. Harbach,  A. W. Hauser,  M. F. Herbst,  J. E. Herr,  
 E. G. Hohenstein,  Z. C. Holden,  Kerwin Hui,  B. C. Huynh,  T.-C. Jagau,  
 Hyunjun Ji,  B. Kaduk,  K. Khistyaev,  Jaehoon Kim,  P. Klunzinger,  K. Koh,  
 D. Kosenkov,  L. Koulias,  T. Kowalczyk,  C. M. Krauter,  A. Kunitsa,  
 Ka Un Lao,  A. Laurent,  K. V. Lawler,  Joonho Lee,  D. Lefrancois,  
 S. Lehtola,  D. S. Levine,  Yi-Pei Li,  You-Sheng Lin,  Fenglai Liu,  
 E. Livshits,  A. Luenser,  P. Manohar,  E. Mansoor,  S. F. Manzer,  
 Shan-Ping Mao,  Yuezhi Mao,  N. Mardirossian,  A. V. Marenich,  
 T. Markovich,  L. A. Martinez-Martinez,  S. A. Maurer,  N. J. Mayhall,  
 S. C. McKenzie,  J.-M. Mewes,  P. Morgante,  A. F. Morrison,  
 J. W. Mullinax,  K. Nanda,  T. S. Nguyen-Beck,  R. Olivares-Amaya,  
 J. A. Parkhill,  Zheng Pei,  T. M. Perrine,  F. Plasser,  P. Pokhilko,  
 S. Prager,  A. Prociuk,  E. Ramos,  D. R. Rehn,  F. Rob,  M. Scheurer,  
 M. Schneider,  N. Sergueev,  S. M. Sharada,  S. Sharma,  D. W. Small,  
 T. Stauch,  T. Stein,  Yu-Chuan Su,  A. J. W. Thom,  A. Tkatchenko,  
 T. Tsuchimochi,  N. M. Tubman,  L. Vogt,  M. L. Vidal,  O. Vydrov,  
 M. A. Watson,  J. Wenzel,  M. de Wergifosse,  T. A. Wesolowski,  A. White,  
 J. Witte,  A. Yamada,  Jun Yang,  K. Yao,  S. Yeganeh,  S. R. Yost,  
 Zhi-Qiang You,  A. Zech,  Igor Ying Zhang,  Xing Zhang,  Yan Zhao,  
 Ying Zhu,  B. R. Brooks,  G. K. L. Chan,  C. J. Cramer,  M. S. Gordon,  
 W. J. Hehre,  A. Klamt,  M. W. Schmidt,  C. D. Sherrill,  D. G. Truhlar,  
 A. Aspuru-Guzik,  R. Baer,  A. T. Bell,  N. A. Besley,  Jeng-Da Chai,  
 A. E. DePrince, III,  R. A. DiStasio Jr.,  A. Dreuw,  B. D. Dunietz,  
 T. R. Furlani,  Chao-Ping Hsu,  Yousung Jung,  Jing Kong,  D. S. Lambrecht,  
 WanZhen Liang,  C. Ochsenfeld,  V. A. Rassolov,  L. V. Slipchenko,  
 J. E. Subotnik,  T. Van Voorhis,  J. M. Herbert,  A. I. Krylov,  
 P. M. W. Gill,  M. Head-Gordon

 Contributors to earlier versions of Q-Chem not listed above: 
 R. D. Adamson,  B. Austin,  J. Baker,  G. J. O. Beran,  K. Brandhorst,  
 S. T. Brown,  E. F. C. Byrd,  A. K. Chakraborty,  C.-L. Cheng,  
 Siu Hung Chien,  D. M. Chipman,  D. L. Crittenden,  H. Dachsel,  
 R. J. Doerksen,  A. D. Dutoi,  L. Fusti-Molnar,  W. A. Goddard III,  
 A. Golubeva-Zadorozhnaya,  S. R. Gwaltney,  G. Hawkins,  A. Heyden,  
 S. Hirata,  G. Kedziora,  F. J. Keil,  C. Kelley,  Jihan Kim,  R. A. King,  
 R. Z. Khaliullin,  P. P. Korambath,  W. Kurlancheek,  A. M. Lee,  M. S. Lee,  
 S. V. Levchenko,  Ching Yeh Lin,  D. Liotard,  R. C. Lochan,  I. Lotan,  
 P. E. Maslen,  N. Nair,  D. P. O'Neill,  D. Neuhauser,  E. Neuscamman,  
 C. M. Oana,  R. Olson,  B. Peters,  R. Peverati,  P. A. Pieniazek,  
 Y. M. Rhee,  J. Ritchie,  M. A. Rohrdanz,  E. Rosta,  N. J. Russ,  
 H. F. Schaefer III,  N. E. Schultz,  N. Shenvi,  A. C. Simmonett,  A. Sodt,  
 D. Stuck,  K. S. Thanthiriwatte,  V. Vanovschi,  Tao Wang,  A. Warshel,  
 C. F. Williams,  Q. Wu,  X. Xu,  W. Zhang

 Please cite Q-Chem as follows:
 Y. Shao et al., Mol. Phys. 113, 184-215 (2015)
 DOI: 10.1080/00268976.2014.952696

 Q-Chem 5.2.1 for Intel X86 EM64T Linux

 Parts of Q-Chem use Armadillo 8.300.2 (Tropical Shenanigans).
 http://arma.sourceforge.net/

 Q-Chem begins on Mon Feb  7 13:42:47 2022  

Host: 
0

     Scratch files written to /gpfs/fs0/scratch/a/aspuru/rhickman/descriptor_computation/qchem48945//
 Jul1719 |scratch|qcdevops|jenkins|workspace|build_RNUM -1
Processing $rem in /scinet/niagara/software/commercial/qc52/config/preferences:
	 MEM_TOTAL  4000 
NAlpha2: 130
NElect   130
Mult     1

Checking the input file for inconsistencies... 	...done.

--------------------------------------------------------------
User input:
--------------------------------------------------------------
$molecule
0 1
C        -6.30590547230000    0.75671672700000    0.03720008930000
C        -5.33581897060000   -0.15470858690000    0.00781099760000
C        -3.92738956220000    0.13290060510000    0.00753081790000
C        -3.26944887930000    1.33971015180000    0.03469390000000
C        -1.87717323330000    1.21805188490000    0.02554148670000
C        -1.44222690780000   -0.08708480560000   -0.00888757350000
C        -0.10296726100000   -0.56860327290000   -0.02485856740000
C         0.33038807250000   -1.87418492280000   -0.06599148500000
C         1.72226612300000   -1.99270120290000   -0.06856133520000
C         2.37463825720000   -0.78230100980000   -0.02961531780000
C         3.79392946000000   -0.59237608600000   -0.02109119490000
C         4.43153131120000    0.57317270560000    0.02103000240000
F         3.87424225060000    1.77773822970000    0.06265863880000
F         5.75645525450000    0.69144053530000    0.02838224810000
S         1.24030641670000    0.53550150500000    0.01094094570000
S        -2.79113052160000   -1.18385485160000   -0.03122475120000
H        -7.34207412420000    0.46864745900000    0.03644718960000
H        -6.10076871710000    1.81265447620000    0.06326375520000
H        -5.58719593270000   -1.20717612930000   -0.01811741210000
H        -3.77822724200000    2.28591160530000    0.06044182690000
H        -1.19712690680000    2.05167236470000    0.04322615270000
H        -0.34774087220000   -2.70852581030000   -0.09274852990000
H         2.24245540380000   -2.93341444690000   -0.09771650970000
H         4.40593786480000   -1.48124716480000   -0.05037444950000
$end

$rem
BASIS = 6-31G*
GUI = 2
METHOD = B3LYP
PRINT_ORBITALS false
MOLDEN_FORMAT false
--------------------------------------------------------------
 ----------------------------------------------------------------
             Standard Nuclear Orientation (Angstroms)
    I     Atom           X                Y                Z
 ----------------------------------------------------------------
    1      C       6.1841342535    -0.9060829801     0.0097302899
    2      C       5.2338190801     0.0264022152     0.0100021103
    3      C       3.8195463226    -0.2307924281     0.0012839141
    4      C       3.1358750289    -1.4234718341    -0.0097819765
    5      C       1.7465296424    -1.2717649307    -0.0142972363
    6      C       1.3396747679     0.0428292468    -0.0067668496
    7      C       0.0110507561     0.5532111859    -0.0066252279
    8      C      -0.3942029406     1.8684301550    -0.0057819044
    9      C      -1.7832191891     2.0167784849    -0.0038185877
   10      C      -2.4614019850     0.8200151146    -0.0032252901
   11      C      -3.8844407072     0.6603838145    -0.0000161020
   12      C      -4.5468953394    -0.4919794970     0.0051762053
   13      F      -4.0155703834    -1.7089297894     0.0079903211
   14      F      -5.8740517702    -0.5819922858     0.0094536509
   15      S      -1.3555949325    -0.5224240798    -0.0054103875
   16      S       2.7117897895     1.1105842437     0.0052363548
   17      H       7.2262418743    -0.6404154225     0.0176297123
   18      H       5.9563981020    -1.9576739846     0.0021449243
   19      H       5.5077103734     1.0735300086     0.0175870350
   20      H       3.6242429761    -2.3807019572    -0.0145577744
   21      H       1.0487615680    -2.0907549117    -0.0228985880
   22      H       0.3016650080     2.6884710833    -0.0062242482
   23      H      -2.2831126016     2.9688779824    -0.0026175853
   24      H      -4.4772437710     1.5626519748    -0.0005507719
 ----------------------------------------------------------------
 Molecular Point Group                 C1    NOp =  1
 Largest Abelian Subgroup              C1    NOp =  1
 Nuclear Repulsion Energy =        1209.35256844 hartrees
 There are       65 alpha and       65 beta electrons
 Requested basis set is 6-31G(d)
 There are 82 shells and 264 basis functions

 Total QAlloc Memory Limit   4000 MB
 Mega-Array Size       188 MB
 MEM_STATIC part       192 MB
 A cutoff of  1.0D-08 yielded   1805 shell pairs
 There are     20256 function pairs
 Smallest overlap matrix eigenvalue = 6.25E-04

 Scale SEOQF with 1.000000e-02/1.000000e-01/1.000000e+00

 Standard Electronic Orientation quadrupole field applied
 Nucleus-field energy     =     0.0000000178 hartrees
 Guess from superposition of atomic densities
 Warning:  Energy on first SCF cycle will be non-variational
 SAD guess density has 130.000000 electrons

 -----------------------------------------------------------------------
  General SCF calculation program by
  Eric Jon Sundstrom, Paul Horn, Yuezhi Mao, Dmitri Zuev, Alec White,
  David Stuck, Shaama M.S., Shane Yost, Joonho Lee, David Small,
  Daniel Levine, Susi Lehtola, Hugh Burton, Evgeny Epifanovsky,
  Bang C. Huynh
 -----------------------------------------------------------------------
 Exchange:     0.2000 Hartree-Fock + 0.0800 Slater + 0.7200 B88
 Correlation:  0.1900 VWN1RPA + 0.8100 LYP
 Using SG-1 standard quadrature grid
 A restricted SCF calculation will be
 performed using DIIS
 SCF converges when DIIS error is below 1.0e-05
 ---------------------------------------
  Cycle       Energy         DIIS error
 ---------------------------------------
    1   -1461.9830464817      4.92e-02  
    2   -1457.7949016577      5.61e-03  
    3   -1457.3853495896      8.50e-03  
    4   -1458.0662322427      1.41e-03  
    5   -1458.0838743571      5.15e-04  
    6   -1458.0854858187      3.18e-04  
    7   -1458.0864579843      8.61e-05  
    8   -1458.0865219286      2.76e-05  
    9   -1458.0865279658      1.12e-05  
   10   -1458.0865291509      2.63e-06  Convergence criterion met
 ---------------------------------------
 SCF time:   CPU 45.09s  wall 45.00s 
 SCF   energy in the final basis set =    -1458.0865291509
 Total energy in the final basis set =    -1458.0865291509
 
 --------------------------------------------------------------
 
                    Orbital Energies (a.u.)
 --------------------------------------------------------------
 
 Alpha MOs
 -- Occupied --
-88.9104 -88.9091 -24.7490 -24.7400 -10.3607 -10.2311 -10.2276 -10.2271
-10.2213 -10.2145 -10.2009 -10.1961 -10.1942 -10.1942 -10.1924 -10.1843
 -7.9720  -7.9709  -5.9361  -5.9348  -5.9325  -5.9314  -5.9287  -5.9278
 -1.2896  -1.2302  -0.9047  -0.8846  -0.8186  -0.7956  -0.7536  -0.7498
 -0.7329  -0.6982  -0.6458  -0.6204  -0.6004  -0.5859  -0.5608  -0.5359
 -0.5308  -0.5262  -0.5234  -0.5046  -0.4770  -0.4505  -0.4457  -0.4416
 -0.4288  -0.4262  -0.4155  -0.4110  -0.4005  -0.3912  -0.3838  -0.3723
 -0.3647  -0.3520  -0.3387  -0.3245  -0.2906  -0.2629  -0.2553  -0.2376
 -0.1852
 -- Virtual --
 -0.0642  -0.0199   0.0183   0.0244   0.0270   0.0733   0.0747   0.0906
  0.0970   0.1077   0.1107   0.1169   0.1295   0.1430   0.1492   0.1721
  0.1801   0.1935   0.1983   0.2153   0.2282   0.2483   0.2610   0.2742
  0.2809   0.3063   0.3174   0.3478   0.3565   0.3569   0.3597   0.3992
  0.4114   0.4187   0.4338   0.4430   0.4629   0.4855   0.4908   0.5068
  0.5079   0.5173   0.5256   0.5422   0.5551   0.5653   0.5734   0.5808
  0.5845   0.5893   0.5954   0.6051   0.6108   0.6113   0.6195   0.6395
  0.6550   0.6696   0.6750   0.6863   0.6997   0.7034   0.7602   0.7735
  0.7974   0.8006   0.8195   0.8216   0.8370   0.8469   0.8514   0.8542
  0.8640   0.8658   0.8690   0.8848   0.8894   0.9143   0.9348   0.9378
  0.9466   0.9532   0.9811   0.9899   1.0037   1.0275   1.0340   1.0449
  1.0491   1.0658   1.0850   1.1096   1.1276   1.1590   1.1595   1.2023
  1.2061   1.2221   1.2311   1.2490   1.2790   1.2838   1.2844   1.3192
  1.3257   1.3480   1.3517   1.3872   1.3911   1.3977   1.4018   1.4176
  1.4467   1.4538   1.4757   1.4887   1.5371   1.5442   1.6108   1.6169
  1.6490   1.6613   1.6724   1.7037   1.7256   1.7443   1.7769   1.7845
  1.7936   1.8294   1.8308   1.8614   1.8686   1.8714   1.9269   1.9480
  1.9511   1.9668   1.9733   1.9903   2.0019   2.0114   2.0481   2.0812
  2.0975   2.0990   2.1182   2.1365   2.1721   2.1823   2.2234   2.2309
  2.2515   2.2558   2.2593   2.2946   2.3263   2.3278   2.3575   2.3948
  2.4114   2.4575   2.4927   2.5073   2.5419   2.5637   2.5705   2.5858
  2.6155   2.6275   2.7171   2.7539   2.8318   2.8551   2.8717   2.9629
  3.0079   3.0366   3.0461   3.0974   3.1649   3.2031   3.2482   3.9552
  3.9669   4.0687   4.0891   4.1161   4.1232   4.1333   4.1576   4.2226
  4.2749   4.3705   4.5116   4.5452   4.5750   4.7841   5.2359
 --------------------------------------------------------------
 
          Ground-State Mulliken Net Atomic Charges

     Atom                 Charge (a.u.)
  ----------------------------------------
      1 C                    -0.341566
      2 C                    -0.091699
      3 C                    -0.120805
      4 C                    -0.127550
      5 C                    -0.145305
      6 C                    -0.145899
      7 C                    -0.151992
      8 C                    -0.146750
      9 C                    -0.141199
     10 C                    -0.127592
     11 C                    -0.236827
     12 C                     0.535918
     13 F                    -0.228948
     14 F                    -0.245091
     15 S                     0.272320
     16 S                     0.251710
     17 H                     0.147933
     18 H                     0.143193
     19 H                     0.137873
     20 H                     0.141374
     21 H                     0.155278
     22 H                     0.153772
     23 H                     0.140011
     24 H                     0.171842
  ----------------------------------------
  Sum of atomic charges =     0.000000

 -----------------------------------------------------------------
                    Cartesian Multipole Moments
 -----------------------------------------------------------------
    Charge (ESU x 10^10)
                 0.0000
    Dipole Moment (Debye)
         X       0.4334      Y       0.8481      Z      -0.0046
       Tot       0.9524
    Quadrupole Moments (Debye-Ang)
        XX     -96.1834     XY      -6.8683     YY     -95.2148
        XZ       0.0386     YZ       0.0539     ZZ    -108.7291
    Octopole Moments (Debye-Ang^2)
       XXX      -9.1038    XXY      11.5918    XYY     -18.3159
       YYY     -11.8081    XXZ       0.2791    XYZ       0.1365
       YYZ      -0.0581    XZZ     -36.9896    YZZ      -7.9337
       ZZZ       0.1940
    Hexadecapole Moments (Debye-Ang^3)
      XXXX   -6961.7395   XXXY     -27.7792   XXYY   -1268.2847
      XYYY      27.6479   YYYY    -807.2255   XXXZ       2.3926
      XXYZ       0.7915   XYYZ      -0.3623   YYYZ       0.1249
      XXZZ   -1299.2878   XYZZ      44.1547   YYZZ    -176.2157
      XZZZ      -0.9504   YZZZ      -0.1471   ZZZZ    -115.0053
 -----------------------------------------------------------------
Archival summary:
1\1\nia1977.scinet.local\SP\ProcedureUnspecified\6-31G*\22128\rhickman\MonFeb713:43:332022MonFeb713:43:332022\0\\#,ProcedureUnspecified,6-31G*,\\0,1\S\C,1,1.73917\C,2,1.37624,1,111.079\H,3,1.0755,2,122.557,1,179.994,0\C,3,1.39692,2,113.222,1,0.016137,0\H,5,1.07535,3,123.798,2,179.981,0\C,5,1.37556,3,113.443,2,-0.00432911,0\C,2,1.42328,1,120.781,3,179.93,0\C,8,1.37613,2,128.21,1,0.437725,0\H,9,1.07596,8,122.374,2,0.103992,0\C,9,1.39761,8,113.427,2,-179.902,0\H,11,1.07462,9,123.26,8,-179.996,0\C,11,1.37478,9,113.591,8,0,0\C,7,1.43197,5,125.94,3,179.936,0\H,14,1.07958,7,116.905,5,0.159542,0\C,14,1.32922,7,126.294,5,-179.754,0\F,16,1.32789,14,126.521,7,-0.0197042,0\F,16,1.33021,14,123.774,7,179.923,0\C,13,1.4375,11,130.131,9,179.935,0\H,19,1.08238,13,114.967,11,179.971,0\C,19,1.3314,13,125.235,11,-0.050497,0\H,21,1.07547,19,121.24,13,-179.934,0\H,21,1.07599,19,122.237,13,0.036456,0\S,8,1.73866,2,121.096,1,-179.491,0\\\@

 Total job time:  45.48s(wall), 45.31s(cpu) 
 Mon Feb  7 13:43:33 2022

        *************************************************************
        *                                                           *
        *  Thank you very much for using Q-Chem.  Have a nice day.  *
        *                                                           *
        *************************************************************


