
Running Job 1 of 1 fragments/A004/conf-1/spe_input.inp
qchem fragments/A004/conf-1/spe_input.inp_189043.0 /gpfs/fs0/scratch/a/aspuru/rhickman/descriptor_computation/qchem189043/ 0
/scinet/niagara/software/commercial/qc52/exe/qcprog.exe_s fragments/A004/conf-1/spe_input.inp_189043.0 /gpfs/fs0/scratch/a/aspuru/rhickman/descriptor_computation/qchem189043/
                  Welcome to Q-Chem
     A Quantum Leap Into The Future Of Chemistry


 Q-Chem 5.2, Q-Chem, Inc., Pleasanton, CA (2019)

 License issued to: SRG Alan Aspuru-Guzik, University of Toronto

 Yihan Shao,  Zhengting Gan,  E. Epifanovsky,  A. T. B. Gilbert,  M. Wormit,  
 J. Kussmann,  A. W. Lange,  A. Behn,  Jia Deng,  Xintian Feng,  D. Ghosh,  
 M. Goldey,  P. R. Horn,  L. D. Jacobson,  I. Kaliman,  T. Kus,  A. Landau,  
 Jie Liu,  E. I. Proynov,  R. M. Richard,  R. P. Steele,  E. J. Sundstrom,  
 H. L. Woodcock III,  P. M. Zimmerman,  D. Zuev,  B. Albrecht,  E. Alguire,  
 S. A. Baeppler,  D. Barton,  Z. Benda,  Y. A. Bernard,  E. J. Berquist,  
 K. B. Bravaya,  H. Burton,  D. Casanova,  Chun-Min Chang,  Yunqing Chen,  
 A. Chien,  K. D. Closser,  M. P. Coons,  S. Coriani,  S. Dasgupta,  
 A. L. Dempwolff,  M. Diedenhofen,  Hainam Do,  R. G. Edgar,  Po-Tung Fang,  
 S. Faraji,  S. Fatehi,  Qingguo Feng,  K. D. Fenk,  J. Fosso-Tande,  
 J. Gayvert,  Qinghui Ge,  A. Ghysels,  G. Gidofalvi,  J. Gomes,  
 J. Gonthier,  A. Gunina,  D. Hait,  M. W. D. Hanson-Heine,  
 P. H. P. Harbach,  A. W. Hauser,  M. F. Herbst,  J. E. Herr,  
 E. G. Hohenstein,  Z. C. Holden,  Kerwin Hui,  B. C. Huynh,  T.-C. Jagau,  
 Hyunjun Ji,  B. Kaduk,  K. Khistyaev,  Jaehoon Kim,  P. Klunzinger,  K. Koh,  
 D. Kosenkov,  L. Koulias,  T. Kowalczyk,  C. M. Krauter,  A. Kunitsa,  
 Ka Un Lao,  A. Laurent,  K. V. Lawler,  Joonho Lee,  D. Lefrancois,  
 S. Lehtola,  D. S. Levine,  Yi-Pei Li,  You-Sheng Lin,  Fenglai Liu,  
 E. Livshits,  A. Luenser,  P. Manohar,  E. Mansoor,  S. F. Manzer,  
 Shan-Ping Mao,  Yuezhi Mao,  N. Mardirossian,  A. V. Marenich,  
 T. Markovich,  L. A. Martinez-Martinez,  S. A. Maurer,  N. J. Mayhall,  
 S. C. McKenzie,  J.-M. Mewes,  P. Morgante,  A. F. Morrison,  
 J. W. Mullinax,  K. Nanda,  T. S. Nguyen-Beck,  R. Olivares-Amaya,  
 J. A. Parkhill,  Zheng Pei,  T. M. Perrine,  F. Plasser,  P. Pokhilko,  
 S. Prager,  A. Prociuk,  E. Ramos,  D. R. Rehn,  F. Rob,  M. Scheurer,  
 M. Schneider,  N. Sergueev,  S. M. Sharada,  S. Sharma,  D. W. Small,  
 T. Stauch,  T. Stein,  Yu-Chuan Su,  A. J. W. Thom,  A. Tkatchenko,  
 T. Tsuchimochi,  N. M. Tubman,  L. Vogt,  M. L. Vidal,  O. Vydrov,  
 M. A. Watson,  J. Wenzel,  M. de Wergifosse,  T. A. Wesolowski,  A. White,  
 J. Witte,  A. Yamada,  Jun Yang,  K. Yao,  S. Yeganeh,  S. R. Yost,  
 Zhi-Qiang You,  A. Zech,  Igor Ying Zhang,  Xing Zhang,  Yan Zhao,  
 Ying Zhu,  B. R. Brooks,  G. K. L. Chan,  C. J. Cramer,  M. S. Gordon,  
 W. J. Hehre,  A. Klamt,  M. W. Schmidt,  C. D. Sherrill,  D. G. Truhlar,  
 A. Aspuru-Guzik,  R. Baer,  A. T. Bell,  N. A. Besley,  Jeng-Da Chai,  
 A. E. DePrince, III,  R. A. DiStasio Jr.,  A. Dreuw,  B. D. Dunietz,  
 T. R. Furlani,  Chao-Ping Hsu,  Yousung Jung,  Jing Kong,  D. S. Lambrecht,  
 WanZhen Liang,  C. Ochsenfeld,  V. A. Rassolov,  L. V. Slipchenko,  
 J. E. Subotnik,  T. Van Voorhis,  J. M. Herbert,  A. I. Krylov,  
 P. M. W. Gill,  M. Head-Gordon

 Contributors to earlier versions of Q-Chem not listed above: 
 R. D. Adamson,  B. Austin,  J. Baker,  G. J. O. Beran,  K. Brandhorst,  
 S. T. Brown,  E. F. C. Byrd,  A. K. Chakraborty,  C.-L. Cheng,  
 Siu Hung Chien,  D. M. Chipman,  D. L. Crittenden,  H. Dachsel,  
 R. J. Doerksen,  A. D. Dutoi,  L. Fusti-Molnar,  W. A. Goddard III,  
 A. Golubeva-Zadorozhnaya,  S. R. Gwaltney,  G. Hawkins,  A. Heyden,  
 S. Hirata,  G. Kedziora,  F. J. Keil,  C. Kelley,  Jihan Kim,  R. A. King,  
 R. Z. Khaliullin,  P. P. Korambath,  W. Kurlancheek,  A. M. Lee,  M. S. Lee,  
 S. V. Levchenko,  Ching Yeh Lin,  D. Liotard,  R. C. Lochan,  I. Lotan,  
 P. E. Maslen,  N. Nair,  D. P. O'Neill,  D. Neuhauser,  E. Neuscamman,  
 C. M. Oana,  R. Olson,  B. Peters,  R. Peverati,  P. A. Pieniazek,  
 Y. M. Rhee,  J. Ritchie,  M. A. Rohrdanz,  E. Rosta,  N. J. Russ,  
 H. F. Schaefer III,  N. E. Schultz,  N. Shenvi,  A. C. Simmonett,  A. Sodt,  
 D. Stuck,  K. S. Thanthiriwatte,  V. Vanovschi,  Tao Wang,  A. Warshel,  
 C. F. Williams,  Q. Wu,  X. Xu,  W. Zhang

 Please cite Q-Chem as follows:
 Y. Shao et al., Mol. Phys. 113, 184-215 (2015)
 DOI: 10.1080/00268976.2014.952696

 Q-Chem 5.2.1 for Intel X86 EM64T Linux

 Parts of Q-Chem use Armadillo 8.300.2 (Tropical Shenanigans).
 http://arma.sourceforge.net/

 Q-Chem begins on Fri Feb  4 12:12:59 2022  

Host: 
0

     Scratch files written to /gpfs/fs0/scratch/a/aspuru/rhickman/descriptor_computation/qchem189043//
 Jul1719 |scratch|qcdevops|jenkins|workspace|build_RNUM -1
Processing $rem in /scinet/niagara/software/commercial/qc52/config/preferences:
	 MEM_TOTAL  4000 
NAlpha2: 174
NElect   174
Mult     1

Checking the input file for inconsistencies... 	...done.

--------------------------------------------------------------
User input:
--------------------------------------------------------------
$molecule
0 1
C        -4.12772047040000    2.43900019180000   -0.89235558440000
C        -4.02217085540000    1.55859206060000    0.35228376150000
C        -5.28520208180000    0.71341968210000    0.52167300630000
O        -2.97242683170000    0.57509570650000    0.18564292740000
C        -1.70438215670000    0.95571223650000   -0.00348563110000
N        -0.90399192470000   -0.15424649070000   -0.17356685440000
C         0.49920797470000   -0.06366682690000   -0.17763280890000
C         1.17837811850000    0.87127865420000    0.59953549900000
C         2.55672817390000    0.92554389390000    0.58429997600000
C         3.30269633430000    0.04383428860000   -0.20034263920000
C         4.75392960770000    0.04453624800000   -0.25810199010000
C         5.60747323360000    0.80565265970000    0.41147868120000
F         5.33883168650000    1.75210427250000    1.30335820380000
F         6.93021176810000    0.70997474440000    0.27196339610000
C         2.61158240120000   -0.89189783580000   -0.97454988390000
C         1.23546468430000   -0.94706812780000   -0.96688185000000
C        -1.48777316760000   -1.43770115480000   -0.34675582000000
C        -2.39821051230000   -1.67152074490000   -1.36989869970000
C        -2.95581579860000   -2.92782061910000   -1.52064371280000
C        -2.60077522930000   -3.95710456270000   -0.66471830310000
C        -1.68335256100000   -3.72684232620000    0.34675072440000
C        -1.12756385940000   -2.47113435990000    0.50965301260000
O        -1.29482475970000    2.08921103390000   -0.02209541840000
C        -3.76721082980000    2.40078468510000    1.60160198330000
H        -4.28242825590000    1.82274421960000   -1.77575950310000
H        -3.21824255040000    3.01929253650000   -1.02172230700000
H        -4.96804470390000    3.11935751180000   -0.78759431270000
H        -5.43414176030000    0.08678670530000   -0.35373602120000
H        -6.14952573040000    1.35772464680000    0.65082718020000
H        -5.18698247800000    0.06859935380000    1.39084578340000
H         0.62490874400000    1.56359118690000    1.21145242740000
H         3.05148435270000    1.66057450260000    1.19719955110000
H         5.20911936110000   -0.66765088260000   -0.93154519730000
H         3.16500017180000   -1.58193742230000   -1.59454284940000
H         0.72122459050000   -1.67494489710000   -1.57660449000000
H        -2.66408533720000   -0.86892325890000   -2.04085971970000
H        -3.66491119290000   -3.10604281010000   -2.31543566810000
H        -3.03664459780000   -4.93713883320000   -0.78718424730000
H        -1.40247501940000   -4.52646456760000    1.01583232210000
H        -0.41191390980000   -2.28317641480000    1.29650070790000
H        -4.61197731410000    3.06123452440000    1.77549534250000
H        -2.87023166630000    3.00054689780000    1.47483942040000
H        -3.64046760400000    1.75410458540000    2.46741701720000
$end

$rem
BASIS = 6-31G*
GUI = 2
METHOD = B3LYP
PRINT_ORBITALS false
MOLDEN_FORMAT false
--------------------------------------------------------------
 ----------------------------------------------------------------
             Standard Nuclear Orientation (Angstroms)
    I     Atom           X                Y                Z
 ----------------------------------------------------------------
    1      C      -3.8380300077    -2.4693088060     1.3362407041
    2      C      -3.7427063128    -1.8939358467    -0.0762909419
    3      C      -5.0528071268    -1.2091734299    -0.4674344374
    4      O      -2.7704967009    -0.8215428627    -0.1184634404
    5      C      -1.4880539561    -1.0507026454     0.1838646142
    6      N      -0.7732167335     0.1261883974     0.1097313515
    7      C       0.6315693094     0.1460470362     0.1678086558
    8      C       1.4042110227    -0.8883242364    -0.3541938049
    9      C       2.7812830814    -0.8325542397    -0.2942941793
   10      C       3.4325971530     0.2603584459     0.2809242137
   11      C       4.8769232137     0.3834353233     0.3714170975
   12      C       5.8071010267    -0.4442426719    -0.0823356559
   13      F       5.6403851001    -1.5883411210    -0.7355068108
   14      F       7.1134160712    -0.2186094228     0.0621864885
   15      C       2.6481157674     1.2939016228     0.7995834390
   16      C       1.2728999702     1.2409230418     0.7468832327
   17      C      -1.4501742020     1.3667602331    -0.0343552150
   18      C      -2.4152474257     1.7600278114     0.8845372685
   19      C      -3.0633398316     2.9710775674     0.7255661700
   20      C      -2.7452921431     3.7994233417    -0.3378135813
   21      C      -1.7739731961     3.4128280450    -1.2460196279
   22      C      -1.1272391154     2.1994132779    -1.0990490022
   23      O      -1.0028281151    -2.1148702080     0.4754231696
   24      C      -3.3801371136    -2.9793927486    -1.0889191761
   25      H      -4.0703322419    -1.6797115423     2.0480554545
   26      H      -2.8968985553    -2.9332359705     1.6184962915
   27      H      -4.6247816810    -3.2174264030     1.3729516007
   28      H      -5.2797468924    -0.4109122473     0.2343278500
   29      H      -5.8649647502    -1.9297625933    -0.4633958682
   30      H      -4.9638638084    -0.7764003476    -1.4602577894
   31      H       0.9247913713    -1.7430539161    -0.8010285520
   32      H       3.3497262640    -1.6491735152    -0.7074586363
   33      H       5.2545174330     1.2641411549     0.8711308333
   34      H       3.1273122900     2.1482830304     1.2547979380
   35      H       0.6856541971     2.0483874299     1.1581651638
   36      H      -2.6524551092     1.1157656528     1.7174235893
   37      H      -3.8146372822     3.2731220369     1.4401254460
   38      H      -3.2519448581     4.7452130320    -0.4571118358
   39      H      -1.5216826924     4.0557787055    -2.0760329149
   40      H      -0.3690625563     1.8902531647    -1.8034641247
   41      H      -4.1698781411    -3.7244635431    -1.1241601221
   42      H      -2.4500240054    -3.4637591907    -0.8049582022
   43      H      -3.2630245447    -2.5418709902    -2.0782391580
 ----------------------------------------------------------------
 Molecular Point Group                 C1    NOp =  1
 Largest Abelian Subgroup              C1    NOp =  1
 Nuclear Repulsion Energy =        2018.44775593 hartrees
 There are       87 alpha and       87 beta electrons
 Requested basis set is 6-31G(d)
 There are 134 shells and 398 basis functions

 Total QAlloc Memory Limit   4000 MB
 Mega-Array Size       188 MB
 MEM_STATIC part       192 MB
 A cutoff of  1.0D-08 yielded   4279 shell pairs
 There are     40202 function pairs
 Smallest overlap matrix eigenvalue = 3.66E-04

 Scale SEOQF with 1.000000e-02/1.000000e-01/1.000000e-01

 Standard Electronic Orientation quadrupole field applied
 Nucleus-field energy     =     0.0000000417 hartrees
 Guess from superposition of atomic densities
 Warning:  Energy on first SCF cycle will be non-variational
 SAD guess density has 174.000000 electrons

 -----------------------------------------------------------------------
  General SCF calculation program by
  Eric Jon Sundstrom, Paul Horn, Yuezhi Mao, Dmitri Zuev, Alec White,
  David Stuck, Shaama M.S., Shane Yost, Joonho Lee, David Small,
  Daniel Levine, Susi Lehtola, Hugh Burton, Evgeny Epifanovsky,
  Bang C. Huynh
 -----------------------------------------------------------------------
 Exchange:     0.2000 Hartree-Fock + 0.0800 Slater + 0.7200 B88
 Correlation:  0.1900 VWN1RPA + 0.8100 LYP
 Using SG-1 standard quadrature grid
 A restricted SCF calculation will be
 performed using DIIS
 SCF converges when DIIS error is below 1.0e-05
 ---------------------------------------
  Cycle       Energy         DIIS error
 ---------------------------------------
    1   -1145.9629677351      4.08e-02  
    2   -1139.8814010965      4.94e-03  
    3   -1139.3966339214      7.35e-03  
    4   -1140.2854080400      1.82e-03  
    5   -1140.3395792285      4.93e-04  
    6   -1140.3429602965      2.33e-04  
    7   -1140.3439977535      5.71e-05  
    8   -1140.3440570850      2.16e-05  
    9   -1140.3440656927      5.54e-06  Convergence criterion met
 ---------------------------------------
 SCF time:   CPU 133.20s  wall 133.00s 
 SCF   energy in the final basis set =    -1140.3440656927
 Total energy in the final basis set =    -1140.3440656927
 
 --------------------------------------------------------------
 
                    Orbital Energies (a.u.)
 --------------------------------------------------------------
 
 Alpha MOs
 -- Occupied --
-24.7397 -24.7290 -19.1836 -19.1214 -14.3777 -10.3509 -10.3352 -10.2549
-10.2304 -10.2289 -10.1996 -10.1986 -10.1934 -10.1930 -10.1926 -10.1921
-10.1910 -10.1884 -10.1864 -10.1842 -10.1826 -10.1767 -10.1714 -10.1702
 -1.2803  -1.2194  -1.1122  -1.0202  -0.9686  -0.8662  -0.8550  -0.8157
 -0.7984  -0.7572  -0.7561  -0.7467  -0.7317  -0.6968  -0.6936  -0.6647
 -0.6398  -0.6236  -0.6163  -0.6084  -0.5923  -0.5683  -0.5554  -0.5385
 -0.5235  -0.5140  -0.5092  -0.4979  -0.4865  -0.4729  -0.4639  -0.4602
 -0.4510  -0.4478  -0.4435  -0.4386  -0.4362  -0.4359  -0.4286  -0.4250
 -0.4162  -0.4141  -0.4072  -0.3967  -0.3908  -0.3791  -0.3766  -0.3755
 -0.3686  -0.3632  -0.3565  -0.3562  -0.3495  -0.3453  -0.3331  -0.3178
 -0.2937  -0.2834  -0.2692  -0.2587  -0.2498  -0.2434  -0.1992
 -- Virtual --
 -0.0263  -0.0087  -0.0079   0.0085   0.0464   0.0788   0.0830   0.0898
  0.0939   0.1076   0.1266   0.1317   0.1450   0.1467   0.1530   0.1570
  0.1610   0.1627   0.1675   0.1731   0.1802   0.1839   0.1856   0.1889
  0.1937   0.1967   0.1983   0.2044   0.2107   0.2144   0.2289   0.2317
  0.2387   0.2567   0.2620   0.2727   0.2872   0.3003   0.3047   0.3196
  0.3277   0.3327   0.3521   0.3564   0.3899   0.4122   0.4198   0.4432
  0.4538   0.4838   0.4862   0.4977   0.5022   0.5032   0.5186   0.5204
  0.5263   0.5313   0.5418   0.5456   0.5493   0.5545   0.5569   0.5664
  0.5729   0.5792   0.5835   0.5869   0.5917   0.5928   0.5955   0.5989
  0.6033   0.6064   0.6149   0.6153   0.6207   0.6260   0.6354   0.6441
  0.6519   0.6663   0.6677   0.6778   0.6847   0.6921   0.7077   0.7188
  0.7235   0.7321   0.7469   0.7671   0.7841   0.7936   0.8054   0.8192
  0.8293   0.8327   0.8360   0.8380   0.8418   0.8482   0.8493   0.8550
  0.8652   0.8740   0.8854   0.8941   0.9004   0.9031   0.9089   0.9140
  0.9204   0.9280   0.9395   0.9460   0.9466   0.9595   0.9613   0.9696
  0.9766   0.9837   0.9949   0.9993   1.0067   1.0212   1.0255   1.0461
  1.0688   1.0798   1.1044   1.1159   1.1302   1.1333   1.1414   1.1534
  1.1647   1.1666   1.1697   1.1879   1.1931   1.2033   1.2180   1.2222
  1.2438   1.2546   1.2654   1.2785   1.2885   1.3029   1.3283   1.3465
  1.3571   1.3747   1.3991   1.4047   1.4103   1.4239   1.4285   1.4461
  1.4485   1.4526   1.4607   1.4723   1.4752   1.4884   1.4915   1.4962
  1.5040   1.5061   1.5149   1.5425   1.5523   1.5752   1.5902   1.6348
  1.6425   1.6907   1.7048   1.7254   1.7311   1.7379   1.7517   1.7838
  1.7867   1.7905   1.7916   1.8079   1.8162   1.8359   1.8393   1.8414
  1.8440   1.8474   1.8619   1.8672   1.8699   1.8796   1.8907   1.9110
  1.9141   1.9219   1.9324   1.9466   1.9607   1.9722   1.9771   1.9879
  2.0004   2.0093   2.0210   2.0247   2.0345   2.0538   2.0736   2.0858
  2.0913   2.1053   2.1132   2.1251   2.1372   2.1498   2.1593   2.1636
  2.1679   2.1740   2.1856   2.1891   2.2097   2.2178   2.2367   2.2451
  2.2470   2.2623   2.2703   2.2766   2.2795   2.3052   2.3069   2.3147
  2.3215   2.3314   2.3527   2.3610   2.3749   2.4265   2.4445   2.4946
  2.5113   2.5128   2.5279   2.5337   2.5658   2.5876   2.6005   2.6112
  2.6315   2.6437   2.6544   2.6697   2.6779   2.6950   2.7126   2.7218
  2.7392   2.7529   2.7582   2.7751   2.7923   2.8062   2.8120   2.8406
  2.8700   2.9053   2.9203   2.9415   2.9653   3.0031   3.0387   3.0634
  3.1469   3.1554   3.2699   3.3066   3.3482   3.4567   3.4958   4.0822
  4.0916   4.1003   4.1166   4.1254   4.1368   4.1631   4.1914   4.2194
  4.2660   4.2921   4.3100   4.3141   4.3315   4.3544   4.4237   4.4387
  4.4668   4.5589   4.7038   4.7420   4.7623   4.8320   5.2914
 --------------------------------------------------------------
 
          Ground-State Mulliken Net Atomic Charges

     Atom                 Charge (a.u.)
  ----------------------------------------
      1 C                    -0.470367
      2 C                     0.307947
      3 C                    -0.449086
      4 O                    -0.509167
      5 C                     0.797389
      6 N                    -0.649812
      7 C                     0.312192
      8 C                    -0.144446
      9 C                    -0.214094
     10 C                     0.204319
     11 C                    -0.299450
     12 C                     0.539930
     13 F                    -0.235643
     14 F                    -0.251110
     15 C                    -0.207378
     16 C                    -0.168581
     17 C                     0.263073
     18 C                    -0.124249
     19 C                    -0.147256
     20 C                    -0.120027
     21 C                    -0.142478
     22 C                    -0.133675
     23 O                    -0.511120
     24 C                    -0.468262
     25 H                     0.142869
     26 H                     0.190552
     27 H                     0.144742
     28 H                     0.153013
     29 H                     0.146722
     30 H                     0.156456
     31 H                     0.157193
     32 H                     0.140448
     33 H                     0.157127
     34 H                     0.128470
     35 H                     0.147798
     36 H                     0.136737
     37 H                     0.132306
     38 H                     0.129948
     39 H                     0.133936
     40 H                     0.144999
     41 H                     0.143204
     42 H                     0.187967
     43 H                     0.146862
  ----------------------------------------
  Sum of atomic charges =     0.000000

 -----------------------------------------------------------------
                    Cartesian Multipole Moments
 -----------------------------------------------------------------
    Charge (ESU x 10^10)
                 0.0000
    Dipole Moment (Debye)
         X      -2.7939      Y       2.1282      Z      -0.2765
       Tot       3.5230
    Quadrupole Moments (Debye-Ang)
        XX    -133.1369     XY       4.3712     YY    -131.5880
        XZ      -0.6622     YZ       2.7102     ZZ    -134.9692
    Octopole Moments (Debye-Ang^2)
       XXX     -39.2806    XXY      -3.9083    XYY      -0.1685
       YYY      -1.2778    XXZ      20.6957    XYZ       1.2370
       YYZ     -11.6061    XZZ      18.4208    YZZ      -2.2271
       ZZZ      -8.0123
    Hexadecapole Moments (Debye-Ang^3)
      XXXX   -9956.2530   XXXY     130.3372   XXYY   -1956.4449
      XYYY    -109.5311   YYYY   -2980.3078   XXXZ     -23.0586
      XXYZ      46.8014   XYYZ       8.1169   YYYZ     -22.2776
      XXZZ   -1679.8650   XYZZ     -24.3820   YYZZ    -593.1029
      XZZZ     -42.3568   YZZZ      -0.0994   ZZZZ    -582.8692
 -----------------------------------------------------------------
Archival summary:
1\1\nia0001.scinet.local\SP\ProcedureUnspecified\6-31G*\2211919\rhickman\FriFeb412:15:132022FriFeb412:15:132022\0\\#,ProcedureUnspecified,6-31G*,\\0,1\O\C,1,1.33738\O,2,1.20536,1,126.298\N,2,1.37897,1,109.798,3,179.737,0\C,4,1.40613,2,121.852,1,-169.642,0\C,5,1.39262,4,121.891,2,32.9846,0\H,6,1.07706,5,119.866,4,-1.21106,0\C,6,1.3795,5,120.5,4,179.307,0\H,8,1.07736,6,118.646,5,-179.993,0\C,5,1.39477,4,119.183,2,-147.965,0\H,10,1.07982,5,119.674,4,1.11112,0\C,10,1.37724,5,120.346,4,-179.089,0\H,12,1.08019,10,119.309,5,-179.799,0\C,8,1.39626,6,121.01,5,-0.389571,0\C,4,1.42058,2,120.247,1,10.125,0\C,15,1.38938,4,120.738,2,56.3422,0\H,16,1.07937,15,119.606,4,0.0443943,0\C,16,1.38273,15,119.831,4,-179.95,0\H,18,1.07994,16,119.667,15,179.861,0\C,18,1.38495,16,120.297,15,-0.644068,0\H,20,1.07956,18,120.071,16,-179.856,0\C,20,1.38483,18,119.845,16,0.0113198,0\H,22,1.0798,20,120.117,18,-179.926,0\C,22,1.38284,20,120.218,18,0.40579,0\H,24,1.0801,22,120.673,20,179.954,0\C,1,1.4481,2,120.685,3,2.0202,0\C,14,1.45238,8,123.771,6,-179.77,0\H,27,1.08071,14,116.444,8,-177.95,0\C,27,1.32521,14,128.591,8,2.20476,0\F,29,1.32793,27,128.199,14,0.230567,0\F,29,1.33351,27,123.012,14,179.917,0\C,26,1.5281,1,110.331,2,-62.1486,0\H,32,1.08631,26,109.646,1,-173.983,0\H,32,1.08644,26,110.28,1,66.0236,0\H,32,1.08807,26,110.025,1,-54.1881,0\C,26,1.5282,1,110.342,2,60.9907,0\H,36,1.08628,26,109.616,1,175.54,0\H,36,1.08657,26,110.294,1,-64.5208,0\H,36,1.08817,26,110.166,1,55.7918,0\C,26,1.52914,1,103.658,2,179.414,0\H,40,1.08576,26,110.042,1,-179.693,0\H,40,1.08669,26,109.994,1,59.954,0\H,40,1.08683,26,110.038,1,-59.3171,0\\\@

 Total job time:  134.80s(wall), 133.64s(cpu) 
 Fri Feb  4 12:15:13 2022

        *************************************************************
        *                                                           *
        *  Thank you very much for using Q-Chem.  Have a nice day.  *
        *                                                           *
        *************************************************************


