
Running Job 1 of 1 fragments/C110/conf-0/spe_input.inp
qchem fragments/C110/conf-0/spe_input.inp_156242.0 /gpfs/fs0/scratch/a/aspuru/rhickman/descriptor_computation/qchem156242/ 0
/scinet/niagara/software/commercial/qc52/exe/qcprog.exe_s fragments/C110/conf-0/spe_input.inp_156242.0 /gpfs/fs0/scratch/a/aspuru/rhickman/descriptor_computation/qchem156242/
                  Welcome to Q-Chem
     A Quantum Leap Into The Future Of Chemistry


 Q-Chem 5.2, Q-Chem, Inc., Pleasanton, CA (2019)

 License issued to: SRG Alan Aspuru-Guzik, University of Toronto

 Yihan Shao,  Zhengting Gan,  E. Epifanovsky,  A. T. B. Gilbert,  M. Wormit,  
 J. Kussmann,  A. W. Lange,  A. Behn,  Jia Deng,  Xintian Feng,  D. Ghosh,  
 M. Goldey,  P. R. Horn,  L. D. Jacobson,  I. Kaliman,  T. Kus,  A. Landau,  
 Jie Liu,  E. I. Proynov,  R. M. Richard,  R. P. Steele,  E. J. Sundstrom,  
 H. L. Woodcock III,  P. M. Zimmerman,  D. Zuev,  B. Albrecht,  E. Alguire,  
 S. A. Baeppler,  D. Barton,  Z. Benda,  Y. A. Bernard,  E. J. Berquist,  
 K. B. Bravaya,  H. Burton,  D. Casanova,  Chun-Min Chang,  Yunqing Chen,  
 A. Chien,  K. D. Closser,  M. P. Coons,  S. Coriani,  S. Dasgupta,  
 A. L. Dempwolff,  M. Diedenhofen,  Hainam Do,  R. G. Edgar,  Po-Tung Fang,  
 S. Faraji,  S. Fatehi,  Qingguo Feng,  K. D. Fenk,  J. Fosso-Tande,  
 J. Gayvert,  Qinghui Ge,  A. Ghysels,  G. Gidofalvi,  J. Gomes,  
 J. Gonthier,  A. Gunina,  D. Hait,  M. W. D. Hanson-Heine,  
 P. H. P. Harbach,  A. W. Hauser,  M. F. Herbst,  J. E. Herr,  
 E. G. Hohenstein,  Z. C. Holden,  Kerwin Hui,  B. C. Huynh,  T.-C. Jagau,  
 Hyunjun Ji,  B. Kaduk,  K. Khistyaev,  Jaehoon Kim,  P. Klunzinger,  K. Koh,  
 D. Kosenkov,  L. Koulias,  T. Kowalczyk,  C. M. Krauter,  A. Kunitsa,  
 Ka Un Lao,  A. Laurent,  K. V. Lawler,  Joonho Lee,  D. Lefrancois,  
 S. Lehtola,  D. S. Levine,  Yi-Pei Li,  You-Sheng Lin,  Fenglai Liu,  
 E. Livshits,  A. Luenser,  P. Manohar,  E. Mansoor,  S. F. Manzer,  
 Shan-Ping Mao,  Yuezhi Mao,  N. Mardirossian,  A. V. Marenich,  
 T. Markovich,  L. A. Martinez-Martinez,  S. A. Maurer,  N. J. Mayhall,  
 S. C. McKenzie,  J.-M. Mewes,  P. Morgante,  A. F. Morrison,  
 J. W. Mullinax,  K. Nanda,  T. S. Nguyen-Beck,  R. Olivares-Amaya,  
 J. A. Parkhill,  Zheng Pei,  T. M. Perrine,  F. Plasser,  P. Pokhilko,  
 S. Prager,  A. Prociuk,  E. Ramos,  D. R. Rehn,  F. Rob,  M. Scheurer,  
 M. Schneider,  N. Sergueev,  S. M. Sharada,  S. Sharma,  D. W. Small,  
 T. Stauch,  T. Stein,  Yu-Chuan Su,  A. J. W. Thom,  A. Tkatchenko,  
 T. Tsuchimochi,  N. M. Tubman,  L. Vogt,  M. L. Vidal,  O. Vydrov,  
 M. A. Watson,  J. Wenzel,  M. de Wergifosse,  T. A. Wesolowski,  A. White,  
 J. Witte,  A. Yamada,  Jun Yang,  K. Yao,  S. Yeganeh,  S. R. Yost,  
 Zhi-Qiang You,  A. Zech,  Igor Ying Zhang,  Xing Zhang,  Yan Zhao,  
 Ying Zhu,  B. R. Brooks,  G. K. L. Chan,  C. J. Cramer,  M. S. Gordon,  
 W. J. Hehre,  A. Klamt,  M. W. Schmidt,  C. D. Sherrill,  D. G. Truhlar,  
 A. Aspuru-Guzik,  R. Baer,  A. T. Bell,  N. A. Besley,  Jeng-Da Chai,  
 A. E. DePrince, III,  R. A. DiStasio Jr.,  A. Dreuw,  B. D. Dunietz,  
 T. R. Furlani,  Chao-Ping Hsu,  Yousung Jung,  Jing Kong,  D. S. Lambrecht,  
 WanZhen Liang,  C. Ochsenfeld,  V. A. Rassolov,  L. V. Slipchenko,  
 J. E. Subotnik,  T. Van Voorhis,  J. M. Herbert,  A. I. Krylov,  
 P. M. W. Gill,  M. Head-Gordon

 Contributors to earlier versions of Q-Chem not listed above: 
 R. D. Adamson,  B. Austin,  J. Baker,  G. J. O. Beran,  K. Brandhorst,  
 S. T. Brown,  E. F. C. Byrd,  A. K. Chakraborty,  C.-L. Cheng,  
 Siu Hung Chien,  D. M. Chipman,  D. L. Crittenden,  H. Dachsel,  
 R. J. Doerksen,  A. D. Dutoi,  L. Fusti-Molnar,  W. A. Goddard III,  
 A. Golubeva-Zadorozhnaya,  S. R. Gwaltney,  G. Hawkins,  A. Heyden,  
 S. Hirata,  G. Kedziora,  F. J. Keil,  C. Kelley,  Jihan Kim,  R. A. King,  
 R. Z. Khaliullin,  P. P. Korambath,  W. Kurlancheek,  A. M. Lee,  M. S. Lee,  
 S. V. Levchenko,  Ching Yeh Lin,  D. Liotard,  R. C. Lochan,  I. Lotan,  
 P. E. Maslen,  N. Nair,  D. P. O'Neill,  D. Neuhauser,  E. Neuscamman,  
 C. M. Oana,  R. Olson,  B. Peters,  R. Peverati,  P. A. Pieniazek,  
 Y. M. Rhee,  J. Ritchie,  M. A. Rohrdanz,  E. Rosta,  N. J. Russ,  
 H. F. Schaefer III,  N. E. Schultz,  N. Shenvi,  A. C. Simmonett,  A. Sodt,  
 D. Stuck,  K. S. Thanthiriwatte,  V. Vanovschi,  Tao Wang,  A. Warshel,  
 C. F. Williams,  Q. Wu,  X. Xu,  W. Zhang

 Please cite Q-Chem as follows:
 Y. Shao et al., Mol. Phys. 113, 184-215 (2015)
 DOI: 10.1080/00268976.2014.952696

 Q-Chem 5.2.1 for Intel X86 EM64T Linux

 Parts of Q-Chem use Armadillo 8.300.2 (Tropical Shenanigans).
 http://arma.sourceforge.net/

 Q-Chem begins on Mon Feb  7 17:55:37 2022  

Host: 
0

     Scratch files written to /gpfs/fs0/scratch/a/aspuru/rhickman/descriptor_computation/qchem156242//
 Jul1719 |scratch|qcdevops|jenkins|workspace|build_RNUM -1
Processing $rem in /scinet/niagara/software/commercial/qc52/config/preferences:
	 MEM_TOTAL  4000 
NAlpha2: 92
NElect   92
Mult     1

Checking the input file for inconsistencies... 	...done.

--------------------------------------------------------------
User input:
--------------------------------------------------------------
$molecule
0 1
C        -4.02459502210000    0.30949661120000   -0.02234690210000
C        -3.24073481510000   -0.75726321890000   -0.11637586380000
C        -1.78498117600000   -0.69517994960000   -0.04430282220000
C        -1.01992818990000   -1.86720553320000   -0.07300922570000
C         0.35510572160000   -1.75781180350000   -0.04475746630000
C         0.94578060140000   -0.49856387220000    0.01799968320000
C         2.43556657580000   -0.42879460540000   -0.01439333550000
N         2.94169988520000    0.50007487090000   -0.86491351380000
O         3.14433101190000   -1.16587310640000    0.63587779740000
C         0.09891630910000    0.62103019940000    0.11752723500000
C         0.62038474240000    1.97196816470000    0.32888642640000
C        -0.09895587800000    3.06508272530000    0.10994452710000
N        -1.22038709280000    0.50102120520000    0.06598472010000
H        -5.09717865040000    0.23764545150000   -0.07639976270000
H        -3.59719795870000    1.28736867480000    0.11639581550000
H        -3.65838697940000   -1.74670390870000   -0.24852357870000
H        -1.49995870830000   -2.83256609410000   -0.12005965470000
H         0.98982815670000   -2.63145416810000   -0.07822033650000
H         2.35433141240000    1.07648026750000   -1.44027065150000
H         3.94123087950000    0.56804882400000   -0.96341037710000
H         1.63458866690000    2.03796551210000    0.69838036600000
H        -1.10767107920000    2.99050132290000   -0.25774587730000
H         0.29264160510000    4.05143106450000    0.29005917100000
$end

$rem
BASIS = 6-31G*
GUI = 2
METHOD = B3LYP
PRINT_ORBITALS false
MOLDEN_FORMAT false
--------------------------------------------------------------
 ----------------------------------------------------------------
             Standard Nuclear Orientation (Angstroms)
    I     Atom           X                Y                Z
 ----------------------------------------------------------------
    1      C       3.9889140946    -0.3442574891    -0.0329849102
    2      C       3.2212279344     0.7347745205    -0.1201782967
    3      C       1.7650842807     0.6950936382    -0.0405629664
    4      C       1.0181800742     1.8789167015    -0.0622691596
    5      C      -0.3582192734     1.7907930551    -0.0270205186
    6      C      -0.9680362896     0.5407004162     0.0356869512
    7      C      -2.4588754429     0.4941341720     0.0109986560
    8      N      -2.9838271573    -0.4245564863    -0.8391702546
    9      O      -3.1526872421     1.2404244700     0.6668646996
   10      C      -0.1381459388    -0.5921509463     0.1279124600
   11      C      -0.6794092727    -1.9353824124     0.3386223383
   12      C       0.0217138196    -3.0389508647     0.1131250954
   13      N       1.1825729290    -0.4924882463     0.0696949868
   14      H       5.0621854562    -0.2889129252    -0.0925290463
   15      H       3.5471204624    -1.3157395680     0.1055521650
   16      H       3.6534922104     1.7179578045    -0.2520397894
   17      H       1.5128871864     2.8368338234    -0.1094254401
   18      H      -0.9794680632     2.6742604488    -0.0549242812
   19      H      -2.4085071588    -1.0085053008    -1.4190766448
   20      H      -3.9847963226    -0.4767606941    -0.9325498542
   21      H      -1.6925619515    -1.9866000975     0.7133080998
   22      H       1.0295212551    -2.9790697351    -0.2597065013
   23      H      -0.3841994568    -4.0195711339     0.2928226739
 ----------------------------------------------------------------
 Molecular Point Group                 C1    NOp =  1
 Largest Abelian Subgroup              C1    NOp =  1
 Nuclear Repulsion Energy =         734.19929384 hartrees
 There are       46 alpha and       46 beta electrons
 Requested basis set is 6-31G(d)
 There are 72 shells and 215 basis functions

 Total QAlloc Memory Limit   4000 MB
 Mega-Array Size       188 MB
 MEM_STATIC part       192 MB
 A cutoff of  1.0D-08 yielded   1806 shell pairs
 There are     17591 function pairs
 Smallest overlap matrix eigenvalue = 6.00E-04

 Scale SEOQF with 1.000000e-01/1.000000e-01/1.000000e+00

 Standard Electronic Orientation quadrupole field applied
 Nucleus-field energy     =     0.0000000163 hartrees
 Guess from superposition of atomic densities
 Warning:  Energy on first SCF cycle will be non-variational
 SAD guess density has 92.000000 electrons

 -----------------------------------------------------------------------
  General SCF calculation program by
  Eric Jon Sundstrom, Paul Horn, Yuezhi Mao, Dmitri Zuev, Alec White,
  David Stuck, Shaama M.S., Shane Yost, Joonho Lee, David Small,
  Daniel Levine, Susi Lehtola, Hugh Burton, Evgeny Epifanovsky,
  Bang C. Huynh
 -----------------------------------------------------------------------
 Exchange:     0.2000 Hartree-Fock + 0.0800 Slater + 0.7200 B88
 Correlation:  0.1900 VWN1RPA + 0.8100 LYP
 Using SG-1 standard quadrature grid
 A restricted SCF calculation will be
 performed using DIIS
 SCF converges when DIIS error is below 1.0e-05
 ---------------------------------------
  Cycle       Energy         DIIS error
 ---------------------------------------
    1    -574.8321153717      5.64e-02  
    2    -571.5468162564      6.63e-03  
    3    -571.2915034327      1.02e-02  
    4    -571.7420015202      2.86e-03  
    5    -571.7825027321      4.81e-04  
    6    -571.7832787905      2.61e-04  
    7    -571.7836316290      6.77e-05  
    8    -571.7836544764      2.69e-05  
    9    -571.7836586868      4.31e-06  Convergence criterion met
 ---------------------------------------
 SCF time:   CPU 32.54s  wall 33.00s 
 SCF   energy in the final basis set =     -571.7836586868
 Total energy in the final basis set =     -571.7836586868
 
 --------------------------------------------------------------
 
                    Orbital Energies (a.u.)
 --------------------------------------------------------------
 
 Alpha MOs
 -- Occupied --
-19.1121 -14.3597 -14.3268 -10.2912 -10.2370 -10.2327 -10.2093 -10.2051
-10.1989 -10.1923 -10.1910 -10.1872 -10.1845  -1.0396  -0.9577  -0.9110
 -0.8212  -0.8144  -0.7723  -0.7417  -0.6645  -0.6533  -0.5999  -0.5771
 -0.5744  -0.5523  -0.5110  -0.5016  -0.4840  -0.4557  -0.4482  -0.4359
 -0.4168  -0.4121  -0.4043  -0.4001  -0.3913  -0.3710  -0.3509  -0.3253
 -0.3034  -0.2713  -0.2683  -0.2606  -0.2460  -0.2301
 -- Virtual --
 -0.0523  -0.0466   0.0247   0.0418   0.0722   0.0930   0.1032   0.1249
  0.1291   0.1327   0.1424   0.1639   0.1760   0.1887   0.1995   0.2224
  0.2455   0.2707   0.2822   0.3101   0.3179   0.3239   0.3343   0.3613
  0.3808   0.3878   0.4393   0.4538   0.4845   0.5086   0.5181   0.5320
  0.5375   0.5506   0.5689   0.5746   0.5796   0.5947   0.6071   0.6087
  0.6119   0.6222   0.6381   0.6510   0.6651   0.6719   0.6803   0.6855
  0.6989   0.7159   0.7210   0.7428   0.7655   0.7775   0.8172   0.8335
  0.8483   0.8543   0.8618   0.8731   0.8818   0.8848   0.8952   0.9119
  0.9290   0.9358   0.9556   0.9718   0.9875   1.0114   1.0175   1.0363
  1.0479   1.0697   1.0874   1.1024   1.1303   1.1517   1.1578   1.1981
  1.2140   1.2333   1.2582   1.3030   1.3128   1.3431   1.3485   1.3741
  1.4000   1.4191   1.4500   1.4677   1.4846   1.4990   1.5217   1.5495
  1.5873   1.6457   1.6691   1.6791   1.6850   1.6926   1.7082   1.7501
  1.7811   1.8057   1.8326   1.8544   1.8681   1.8852   1.9033   1.9644
  1.9739   1.9795   1.9925   2.0031   2.0373   2.0603   2.1146   2.1249
  2.1423   2.1454   2.1657   2.1986   2.2245   2.2475   2.2705   2.2988
  2.3000   2.3183   2.3450   2.3515   2.3675   2.4261   2.4503   2.4822
  2.5090   2.5412   2.5606   2.6021   2.6655   2.6826   2.6831   2.7094
  2.7388   2.7855   2.8086   2.8300   2.8979   2.9157   2.9673   3.0447
  3.0688   3.1253   3.2935   3.4858   3.8337   4.0539   4.0734   4.1114
  4.1304   4.1592   4.2041   4.2539   4.3280   4.4033   4.4840   4.5464
  4.7250
 --------------------------------------------------------------
 
          Ground-State Mulliken Net Atomic Charges

     Atom                 Charge (a.u.)
  ----------------------------------------
      1 C                    -0.329019
      2 C                    -0.108219
      3 C                     0.326929
      4 C                    -0.189107
      5 C                    -0.121387
      6 C                     0.027918
      7 C                     0.492793
      8 N                    -0.740577
      9 O                    -0.493154
     10 C                     0.265015
     11 C                    -0.132572
     12 C                    -0.326223
     13 N                    -0.575665
     14 H                     0.144993
     15 H                     0.170130
     16 H                     0.128556
     17 H                     0.140088
     18 H                     0.164919
     19 H                     0.343962
     20 H                     0.342849
     21 H                     0.153327
     22 H                     0.168959
     23 H                     0.145483
  ----------------------------------------
  Sum of atomic charges =     0.000000

 -----------------------------------------------------------------
                    Cartesian Multipole Moments
 -----------------------------------------------------------------
    Charge (ESU x 10^10)
                 0.0000
    Dipole Moment (Debye)
         X       0.8390      Y      -1.2740      Z      -2.4370
       Tot       2.8751
    Quadrupole Moments (Debye-Ang)
        XX     -71.7938     XY      10.6566     YY     -68.6108
        XZ       6.7928     YZ      -0.8502     ZZ     -76.7933
    Octopole Moments (Debye-Ang^2)
       XXX       5.7796    XXY     -26.7361    XYY       5.5377
       YYY      -0.7229    XXZ     -28.1338    XYZ       2.4717
       YYZ      -4.0885    XZZ     -13.0080    YZZ      -3.2818
       ZZZ      -3.2319
    Hexadecapole Moments (Debye-Ang^3)
      XXXX   -2026.8230   XXXY      99.4229   XXYY    -539.5126
      XYYY      12.2373   YYYY    -918.4129   XXXZ      91.8431
      XXYZ      -8.8857   XYYZ       5.9436   YYYZ      -5.0991
      XXZZ    -405.9752   XYZZ       7.6384   YYZZ    -202.1490
      XZZZ       8.7973   YZZZ      10.0719   ZZZZ    -129.2983
 -----------------------------------------------------------------
Archival summary:
1\1\nia1977.scinet.local\SP\ProcedureUnspecified\6-31G*\121010\rhickman\MonFeb717:56:102022MonFeb717:56:102022\0\\#,ProcedureUnspecified,6-31G*,\\0,1\N\C,1,1.32575\C,1,1.32734,2,120.537\C,3,1.39992,1,121.584,2,1.7762,0\H,4,1.07915,3,120.446,1,177.335,0\C,4,1.37967,3,118.546,1,-2.89744,0\H,6,1.08039,4,121.384,3,-179.18,0\C,6,1.39231,4,119.699,3,0.328481,0\C,3,1.45886,1,117.834,2,-179.087,0\H,9,1.08208,3,115.474,1,177.473,0\C,9,1.32712,3,123.482,1,-2.86673,0\H,11,1.07617,9,120.328,3,-0.10491,0\H,11,1.07635,9,122.098,3,-179.863,0\C,2,1.46343,1,116.345,3,-176.055,0\H,14,1.08143,2,116.095,1,160.131,0\C,14,1.32676,2,122.925,1,-18.6787,0\H,16,1.07623,14,120.494,2,-1.23883,0\H,16,1.07642,14,122.012,2,178.688,0\C,8,1.49177,6,117.71,4,-177.357,0\O,19,1.21181,8,122.957,6,-44.3989,0\N,19,1.35733,8,114.709,6,133.588,0\H,21,1.00413,19,122.259,8,-1.38604,0\H,21,1.00667,19,118.539,8,-177.285,0\\\@

 Total job time:  33.00s(wall), 32.71s(cpu) 
 Mon Feb  7 17:56:10 2022

        *************************************************************
        *                                                           *
        *  Thank you very much for using Q-Chem.  Have a nice day.  *
        *                                                           *
        *************************************************************


