53
 energy: -62.356997042092 gnorm: 0.000044556503 xtb: 6.4.1 (23d549d)
C         5.97864386520000    4.00702458890000   -0.12544901130000
C         4.69514206910000    4.34992688280000   -0.04294617410000
C         3.58306152310000    3.45286410240000   -0.20427228210000
C         3.56293486670000    2.10553570140000   -0.46101427470000
C         2.27186786630000    1.55834170560000   -0.56369269560000
C         2.02501072680000    0.09969213380000   -0.79079804410000
C         1.78605536650000   -0.61838782560000    0.54319323180000
C         1.61100684040000   -2.12905873540000    0.39076411850000
C         0.40686227320000   -2.56014629600000   -0.45068361440000
C        -0.94783724860000   -2.03385615030000    0.02701408780000
C        -1.33408559200000   -2.53119168190000    1.41759418710000
C        -2.67576334650000   -1.97844330650000    1.90364796810000
C        -3.88673533810000   -2.37746272870000    1.05832322460000
C        -4.11701234410000   -3.88647832290000    1.01501895850000
C        -5.45245427510000   -4.27264670510000    0.37711720990000
C        -5.60221022830000   -3.87065368870000   -1.09140705860000
C        -4.57720904040000   -4.53262097860000   -2.00501657060000
C         1.28083330510000    2.49976643690000   -0.37336611850000
C        -0.14111957820000    2.30165682600000   -0.40523467110000
C        -1.05015092940000    3.23254657430000   -0.12638166610000
S         1.96487809490000    4.07156278880000   -0.07572838080000
H         6.76077030200000    4.73359190600000    0.00561616770000
H         6.29048314880000    2.99670638300000   -0.32561524650000
H         4.42552085120000    5.37855873230000    0.15942504340000
H         4.45535171060000    1.51686150480000   -0.57833726310000
H         2.89573818290000   -0.33880262090000   -1.28289228990000
H         1.16299790030000   -0.03534705660000   -1.44501414500000
H         0.91200380800000   -0.18670343440000    1.03321751110000
H         2.64462796220000   -0.43333386350000    1.19417864720000
H         1.52972415780000   -2.56876535210000    1.38670715550000
H         2.51136029080000   -2.54266224950000   -0.07156300480000
H         0.37410921880000   -3.65303050990000   -0.45552121930000
H         0.55959104650000   -2.24002248650000   -1.48393264440000
H        -1.70083993540000   -2.35852870470000   -0.69402196640000
H        -0.94698283180000   -0.94244816650000    0.02611159020000
H        -0.57019089650000   -2.22209264760000    2.13376627790000
H        -1.36048442340000   -3.62230927790000    1.41857985540000
H        -2.61485620290000   -0.88688647590000    1.92869441730000
H        -2.83743144400000   -2.32074358220000    2.92924776840000
H        -3.76569781190000   -1.99038909720000    0.04645528880000
H        -4.77212015130000   -1.89965943030000    1.48643742090000
H        -4.10328445380000   -4.27224105080000    2.03797510430000
H        -3.30564886910000   -4.37105590480000    0.47206722200000
H        -6.26210375340000   -3.80983924150000    0.94754404120000
H        -5.57344773330000   -5.35636555260000    0.45537622010000
H        -5.52849636980000   -2.78604923150000   -1.18631881810000
H        -6.60410602120000   -4.15762221740000   -1.42075436780000
H        -3.57106166860000   -4.18712951830000   -1.78189249260000
H        -4.79101730060000   -4.29667381070000   -3.04528950500000
H        -4.60382943270000   -5.61390335620000   -1.88652164200000
H        -0.46036437500000    1.30537165930000   -0.68203756690000
H        -0.76291021490000    4.23171192460000    0.15667055290000
H        -2.10450594260000    3.02446897460000   -0.17078225320000
