
Running Job 1 of 1 fragments/C037/conf-3/spe_input.inp
qchem fragments/C037/conf-3/spe_input.inp_157042.0 /gpfs/fs0/scratch/a/aspuru/rhickman/descriptor_computation/qchem157042/ 0
/scinet/niagara/software/commercial/qc52/exe/qcprog.exe_s fragments/C037/conf-3/spe_input.inp_157042.0 /gpfs/fs0/scratch/a/aspuru/rhickman/descriptor_computation/qchem157042/
                  Welcome to Q-Chem
     A Quantum Leap Into The Future Of Chemistry


 Q-Chem 5.2, Q-Chem, Inc., Pleasanton, CA (2019)

 License issued to: SRG Alan Aspuru-Guzik, University of Toronto

 Yihan Shao,  Zhengting Gan,  E. Epifanovsky,  A. T. B. Gilbert,  M. Wormit,  
 J. Kussmann,  A. W. Lange,  A. Behn,  Jia Deng,  Xintian Feng,  D. Ghosh,  
 M. Goldey,  P. R. Horn,  L. D. Jacobson,  I. Kaliman,  T. Kus,  A. Landau,  
 Jie Liu,  E. I. Proynov,  R. M. Richard,  R. P. Steele,  E. J. Sundstrom,  
 H. L. Woodcock III,  P. M. Zimmerman,  D. Zuev,  B. Albrecht,  E. Alguire,  
 S. A. Baeppler,  D. Barton,  Z. Benda,  Y. A. Bernard,  E. J. Berquist,  
 K. B. Bravaya,  H. Burton,  D. Casanova,  Chun-Min Chang,  Yunqing Chen,  
 A. Chien,  K. D. Closser,  M. P. Coons,  S. Coriani,  S. Dasgupta,  
 A. L. Dempwolff,  M. Diedenhofen,  Hainam Do,  R. G. Edgar,  Po-Tung Fang,  
 S. Faraji,  S. Fatehi,  Qingguo Feng,  K. D. Fenk,  J. Fosso-Tande,  
 J. Gayvert,  Qinghui Ge,  A. Ghysels,  G. Gidofalvi,  J. Gomes,  
 J. Gonthier,  A. Gunina,  D. Hait,  M. W. D. Hanson-Heine,  
 P. H. P. Harbach,  A. W. Hauser,  M. F. Herbst,  J. E. Herr,  
 E. G. Hohenstein,  Z. C. Holden,  Kerwin Hui,  B. C. Huynh,  T.-C. Jagau,  
 Hyunjun Ji,  B. Kaduk,  K. Khistyaev,  Jaehoon Kim,  P. Klunzinger,  K. Koh,  
 D. Kosenkov,  L. Koulias,  T. Kowalczyk,  C. M. Krauter,  A. Kunitsa,  
 Ka Un Lao,  A. Laurent,  K. V. Lawler,  Joonho Lee,  D. Lefrancois,  
 S. Lehtola,  D. S. Levine,  Yi-Pei Li,  You-Sheng Lin,  Fenglai Liu,  
 E. Livshits,  A. Luenser,  P. Manohar,  E. Mansoor,  S. F. Manzer,  
 Shan-Ping Mao,  Yuezhi Mao,  N. Mardirossian,  A. V. Marenich,  
 T. Markovich,  L. A. Martinez-Martinez,  S. A. Maurer,  N. J. Mayhall,  
 S. C. McKenzie,  J.-M. Mewes,  P. Morgante,  A. F. Morrison,  
 J. W. Mullinax,  K. Nanda,  T. S. Nguyen-Beck,  R. Olivares-Amaya,  
 J. A. Parkhill,  Zheng Pei,  T. M. Perrine,  F. Plasser,  P. Pokhilko,  
 S. Prager,  A. Prociuk,  E. Ramos,  D. R. Rehn,  F. Rob,  M. Scheurer,  
 M. Schneider,  N. Sergueev,  S. M. Sharada,  S. Sharma,  D. W. Small,  
 T. Stauch,  T. Stein,  Yu-Chuan Su,  A. J. W. Thom,  A. Tkatchenko,  
 T. Tsuchimochi,  N. M. Tubman,  L. Vogt,  M. L. Vidal,  O. Vydrov,  
 M. A. Watson,  J. Wenzel,  M. de Wergifosse,  T. A. Wesolowski,  A. White,  
 J. Witte,  A. Yamada,  Jun Yang,  K. Yao,  S. Yeganeh,  S. R. Yost,  
 Zhi-Qiang You,  A. Zech,  Igor Ying Zhang,  Xing Zhang,  Yan Zhao,  
 Ying Zhu,  B. R. Brooks,  G. K. L. Chan,  C. J. Cramer,  M. S. Gordon,  
 W. J. Hehre,  A. Klamt,  M. W. Schmidt,  C. D. Sherrill,  D. G. Truhlar,  
 A. Aspuru-Guzik,  R. Baer,  A. T. Bell,  N. A. Besley,  Jeng-Da Chai,  
 A. E. DePrince, III,  R. A. DiStasio Jr.,  A. Dreuw,  B. D. Dunietz,  
 T. R. Furlani,  Chao-Ping Hsu,  Yousung Jung,  Jing Kong,  D. S. Lambrecht,  
 WanZhen Liang,  C. Ochsenfeld,  V. A. Rassolov,  L. V. Slipchenko,  
 J. E. Subotnik,  T. Van Voorhis,  J. M. Herbert,  A. I. Krylov,  
 P. M. W. Gill,  M. Head-Gordon

 Contributors to earlier versions of Q-Chem not listed above: 
 R. D. Adamson,  B. Austin,  J. Baker,  G. J. O. Beran,  K. Brandhorst,  
 S. T. Brown,  E. F. C. Byrd,  A. K. Chakraborty,  C.-L. Cheng,  
 Siu Hung Chien,  D. M. Chipman,  D. L. Crittenden,  H. Dachsel,  
 R. J. Doerksen,  A. D. Dutoi,  L. Fusti-Molnar,  W. A. Goddard III,  
 A. Golubeva-Zadorozhnaya,  S. R. Gwaltney,  G. Hawkins,  A. Heyden,  
 S. Hirata,  G. Kedziora,  F. J. Keil,  C. Kelley,  Jihan Kim,  R. A. King,  
 R. Z. Khaliullin,  P. P. Korambath,  W. Kurlancheek,  A. M. Lee,  M. S. Lee,  
 S. V. Levchenko,  Ching Yeh Lin,  D. Liotard,  R. C. Lochan,  I. Lotan,  
 P. E. Maslen,  N. Nair,  D. P. O'Neill,  D. Neuhauser,  E. Neuscamman,  
 C. M. Oana,  R. Olson,  B. Peters,  R. Peverati,  P. A. Pieniazek,  
 Y. M. Rhee,  J. Ritchie,  M. A. Rohrdanz,  E. Rosta,  N. J. Russ,  
 H. F. Schaefer III,  N. E. Schultz,  N. Shenvi,  A. C. Simmonett,  A. Sodt,  
 D. Stuck,  K. S. Thanthiriwatte,  V. Vanovschi,  Tao Wang,  A. Warshel,  
 C. F. Williams,  Q. Wu,  X. Xu,  W. Zhang

 Please cite Q-Chem as follows:
 Y. Shao et al., Mol. Phys. 113, 184-215 (2015)
 DOI: 10.1080/00268976.2014.952696

 Q-Chem 5.2.1 for Intel X86 EM64T Linux

 Parts of Q-Chem use Armadillo 8.300.2 (Tropical Shenanigans).
 http://arma.sourceforge.net/

 Q-Chem begins on Mon Feb  7 17:59:35 2022  

Host: 
0

     Scratch files written to /gpfs/fs0/scratch/a/aspuru/rhickman/descriptor_computation/qchem157042//
 Jul1719 |scratch|qcdevops|jenkins|workspace|build_RNUM -1
Processing $rem in /scinet/niagara/software/commercial/qc52/config/preferences:
	 MEM_TOTAL  4000 
NAlpha2: 114
NElect   114
Mult     1

Checking the input file for inconsistencies... 	...done.

--------------------------------------------------------------
User input:
--------------------------------------------------------------
$molecule
0 1
C         0.97176311310000    1.25120799140000    2.33995832080000
C         1.60304783170000    0.13266553820000    2.00900744920000
C         1.66651189980000   -0.45784415480000    0.68149867900000
C         2.79948437980000   -1.21597755730000    0.27536567230000
C         2.75474414920000   -1.60654937760000   -1.01967390100000
S         1.31606036000000   -1.08758871690000   -1.80154192920000
C         0.75133022220000   -0.31919550800000   -0.34192641960000
C        -0.55195685180000    0.28850195870000   -0.34292764720000
S        -1.02223523580000    1.32436259260000   -1.65904298430000
C        -2.56648857970000    1.58312119780000   -0.94758370500000
C        -2.71238360980000    0.91618954520000    0.22089677820000
C        -1.56713171670000    0.15674862420000    0.58440964340000
C        -1.47352296720000   -0.70157344320000    1.74766712210000
C        -2.28336154950000   -0.65347986160000    2.79907691080000
H         1.00414985660000    1.63527171010000    3.34467127430000
H         0.41110286430000    1.82722888860000    1.62457938450000
H         2.18739337090000   -0.39177394410000    2.75554875290000
H         3.62147394030000   -1.43316263790000    0.93470571380000
H         3.47908123860000   -2.17128308910000   -1.57226991270000
H        -3.27275443410000    2.21633985980000   -1.44685606770000
H        -3.61507937010000    0.93846322070000    0.80347105430000
H        -0.66959114410000   -1.42533861660000    1.72114685790000
H        -3.07981550730000    0.06613489820000    2.88136109810000
H        -2.16714320820000   -1.33119456270000    3.62678603820000
$end

$rem
BASIS = 6-31G*
GUI = 2
METHOD = B3LYP
PRINT_ORBITALS false
MOLDEN_FORMAT false
--------------------------------------------------------------
 ----------------------------------------------------------------
             Standard Nuclear Orientation (Angstroms)
    I     Atom           X                Y                Z
 ----------------------------------------------------------------
    1      C       0.0450125967    -2.1626960408    -1.7400116549
    2      C      -1.0093985235    -2.1219864018    -0.9364284235
    3      C      -1.5596580797    -0.9357389814    -0.3000005810
    4      C      -2.9503991014    -0.8401297746    -0.0170956399
    5      C      -3.3218921303     0.3641216234     0.4763078779
    6      S      -1.9881204237     1.4337788223     0.6416418962
    7      C      -0.8907360784     0.2256652944     0.0284249768
    8      C       0.5144735749     0.5282776153    -0.0123919844
    9      S       1.0524693364     2.0535640443    -0.6530092350
   10      C       2.6936867519     1.6420072498    -0.3449911964
   11      C       2.8199142853     0.4165773276     0.2152033629
   12      C       1.5764322889    -0.2396893821     0.4239149933
   13      C       1.4137771170    -1.5285763091     1.0649774829
   14      C       2.3820199944    -2.4195973466     1.2444247087
   15      H       0.3653552144    -3.0832809907    -2.1959786685
   16      H       0.6184968676    -1.2842861015    -1.9796338171
   17      H      -1.5787903666    -3.0259330950    -0.7561683260
   18      H      -3.6391725293    -1.6453552292    -0.2035590931
   19      H      -4.3011476865     0.6974562454     0.7571945484
   20      H       3.4648312019     2.3418340873    -0.5992132603
   21      H       3.7659111419    -0.0076004638     0.4978899174
   22      H       0.4121094798    -1.7462033083     1.4115985448
   23      H       3.3868882398    -2.2581333858     0.8935341336
   24      H       2.1965396572    -3.3553928690     1.7422099066
 ----------------------------------------------------------------
 Molecular Point Group                 C1    NOp =  1
 Largest Abelian Subgroup              C1    NOp =  1
 Nuclear Repulsion Energy =        1045.71368167 hartrees
 There are       57 alpha and       57 beta electrons
 Requested basis set is 6-31G(d)
 There are 78 shells and 238 basis functions

 Total QAlloc Memory Limit   4000 MB
 Mega-Array Size       188 MB
 MEM_STATIC part       192 MB
 A cutoff of  1.0D-08 yielded   2116 shell pairs
 There are     21559 function pairs
 Smallest overlap matrix eigenvalue = 6.72E-04

 Scale SEOQF with 1.000000e-01/1.000000e-01/1.000000e-01

 Standard Electronic Orientation quadrupole field applied
 Nucleus-field energy     =     0.0000000286 hartrees
 Guess from superposition of atomic densities
 Warning:  Energy on first SCF cycle will be non-variational
 SAD guess density has 114.000000 electrons

 -----------------------------------------------------------------------
  General SCF calculation program by
  Eric Jon Sundstrom, Paul Horn, Yuezhi Mao, Dmitri Zuev, Alec White,
  David Stuck, Shaama M.S., Shane Yost, Joonho Lee, David Small,
  Daniel Levine, Susi Lehtola, Hugh Burton, Evgeny Epifanovsky,
  Bang C. Huynh
 -----------------------------------------------------------------------
 Exchange:     0.2000 Hartree-Fock + 0.0800 Slater + 0.7200 B88
 Correlation:  0.1900 VWN1RPA + 0.8100 LYP
 Using SG-1 standard quadrature grid
 A restricted SCF calculation will be
 performed using DIIS
 SCF converges when DIIS error is below 1.0e-05
 ---------------------------------------
  Cycle       Energy         DIIS error
 ---------------------------------------
    1   -1263.0884107792      5.24e-02  
    2   -1259.3463012469      5.70e-03  
    3   -1259.0344057473      8.21e-03  
    4   -1259.5757105355      1.87e-03  
    5   -1259.6026204466      6.16e-04  
    6   -1259.6044463702      3.47e-04  
    7   -1259.6052945867      1.17e-04  
    8   -1259.6053956295      2.71e-05  
    9   -1259.6054010340      6.28e-06  Convergence criterion met
 ---------------------------------------
 SCF time:   CPU 45.06s  wall 45.00s 
 SCF   energy in the final basis set =    -1259.6054010340
 Total energy in the final basis set =    -1259.6054010340
 
 --------------------------------------------------------------
 
                    Orbital Energies (a.u.)
 --------------------------------------------------------------
 
 Alpha MOs
 -- Occupied --
-88.9082 -88.9071 -10.2233 -10.2215 -10.2130 -10.2118 -10.1987 -10.1953
-10.1910 -10.1896 -10.1892 -10.1874 -10.1765 -10.1762  -7.9698  -7.9687
 -5.9337  -5.9327  -5.9301  -5.9290  -5.9269  -5.9257  -0.9013  -0.8779
 -0.7957  -0.7858  -0.7665  -0.7220  -0.7185  -0.6964  -0.6129  -0.5988
 -0.5819  -0.5632  -0.5477  -0.5065  -0.4973  -0.4724  -0.4558  -0.4467
 -0.4208  -0.4143  -0.4071  -0.3974  -0.3895  -0.3771  -0.3715  -0.3633
 -0.3604  -0.3406  -0.3358  -0.3080  -0.2856  -0.2612  -0.2398  -0.2254
 -0.2003
 -- Virtual --
 -0.0487  -0.0065   0.0069   0.0179   0.0259   0.0518   0.0900   0.1006
  0.1110   0.1124   0.1239   0.1348   0.1382   0.1435   0.1486   0.1585
  0.1775   0.1949   0.2067   0.2182   0.2433   0.2474   0.2784   0.2912
  0.2987   0.3211   0.3297   0.3398   0.3464   0.3566   0.3744   0.3897
  0.3954   0.4067   0.4369   0.4521   0.4627   0.4703   0.4833   0.4843
  0.4962   0.5043   0.5283   0.5515   0.5554   0.5626   0.5685   0.5867
  0.5880   0.5961   0.6048   0.6251   0.6302   0.6393   0.6587   0.6690
  0.6821   0.6835   0.6951   0.7066   0.7354   0.7596   0.7947   0.8031
  0.8096   0.8169   0.8285   0.8415   0.8452   0.8498   0.8655   0.8676
  0.8767   0.8778   0.8853   0.8924   0.9188   0.9282   0.9394   0.9599
  0.9787   0.9837   0.9940   0.9986   1.0021   1.0206   1.0278   1.0294
  1.0586   1.0674   1.0749   1.0873   1.1093   1.1238   1.1407   1.1668
  1.2032   1.2168   1.2530   1.2899   1.3335   1.3482   1.3702   1.4082
  1.4180   1.4414   1.4458   1.4665   1.4745   1.4872   1.4999   1.5234
  1.5512   1.5609   1.6259   1.6751   1.6962   1.7244   1.7397   1.7673
  1.8077   1.8534   1.8694   1.8767   1.9093   1.9467   1.9634   1.9777
  1.9902   2.0088   2.0184   2.0341   2.0561   2.1098   2.1261   2.1600
  2.1986   2.2113   2.2313   2.2474   2.2569   2.2592   2.2798   2.2861
  2.3158   2.3623   2.3851   2.4000   2.4336   2.4748   2.4860   2.5075
  2.5233   2.5946   2.6126   2.6881   2.6951   2.7338   2.7588   2.7724
  2.7907   2.8332   2.8532   3.0856   3.0976   3.1856   3.2799   3.9297
  3.9798   4.0974   4.1208   4.1318   4.1522   4.1722   4.1938   4.2921
  4.3231   4.3543   4.4225   4.5717   4.6981
 --------------------------------------------------------------
 
          Ground-State Mulliken Net Atomic Charges

     Atom                 Charge (a.u.)
  ----------------------------------------
      1 C                    -0.326772
      2 C                    -0.126736
      3 C                     0.184480
      4 C                    -0.140093
      5 C                    -0.341204
      6 S                     0.267368
      7 C                    -0.253258
      8 C                    -0.262636
      9 S                     0.257929
     10 C                    -0.345072
     11 C                    -0.136466
     12 C                     0.185437
     13 C                    -0.090111
     14 C                    -0.353571
     15 H                     0.141502
     16 H                     0.161956
     17 H                     0.127632
     18 H                     0.141776
     19 H                     0.172443
     20 H                     0.171459
     21 H                     0.142739
     22 H                     0.141264
     23 H                     0.137714
     24 H                     0.142219
  ----------------------------------------
  Sum of atomic charges =     0.000000

 -----------------------------------------------------------------
                    Cartesian Multipole Moments
 -----------------------------------------------------------------
    Charge (ESU x 10^10)
                 0.0000
    Dipole Moment (Debye)
         X       0.0181      Y      -0.8793      Z      -0.0151
       Tot       0.8796
    Quadrupole Moments (Debye-Ang)
        XX     -81.7552     XY       2.6121     YY     -90.7969
        XZ      -2.5353     YZ      -0.5328     ZZ     -98.6942
    Octopole Moments (Debye-Ang^2)
       XXX      -8.0207    XXY       7.8945    XYY       3.3522
       YYY      -6.4172    XXZ       5.1697    XYZ      -6.5765
       YYZ      -2.3414    XZZ       0.8351    YZZ      -1.0805
       ZZZ      -2.1002
    Hexadecapole Moments (Debye-Ang^3)
      XXXX   -2059.4791   XXXY      14.9952   XXYY    -577.8773
      XYYY      29.3002   YYYY   -1424.2506   XXXZ     -39.1151
      XXYZ      -2.3968   XYYZ      -8.8503   YYYZ      -9.9778
      XXZZ    -491.6973   XYZZ      -8.9234   YYZZ    -315.3561
      XZZZ     -17.1264   YZZZ       1.3511   ZZZZ    -487.5796
 -----------------------------------------------------------------
Archival summary:
1\1\nia1977.scinet.local\SP\ProcedureUnspecified\6-31G*\21210\rhickman\MonFeb718:00:202022MonFeb718:00:202022\0\\#,ProcedureUnspecified,6-31G*,\\0,1\S\C,1,1.71984\H,2,1.07194,1,119.196\C,2,1.3533,1,112.323,3,179.862,0\H,4,1.07459,2,123.26,1,-178.774,0\C,4,1.42144,2,113.406,1,-0.280139,0\C,6,1.38127,4,111.685,2,0.682475,0\C,7,1.438,6,128.706,4,-179.628,0\C,8,1.37992,7,130.095,6,-44.9037,0\C,9,1.42244,8,111.718,7,175.61,0\H,10,1.0759,9,122.761,8,-179.917,0\C,10,1.35339,9,113.621,8,1.51621,0\H,12,1.07189,10,128.536,9,179.199,0\C,6,1.44867,4,125.027,2,-176.815,0\H,14,1.08206,6,115.127,4,162.222,0\C,14,1.32801,6,125.091,4,-17.7453,0\H,16,1.07606,14,121.354,6,179.123,0\H,16,1.07655,14,122.403,6,-1.69205,0\C,9,1.45431,8,127.391,7,-8.16852,0\H,19,1.08343,9,114.135,8,157.338,0\C,19,1.32634,9,126.225,8,-26.3772,0\H,21,1.07606,19,122.245,9,1.47353,0\H,21,1.0761,19,121.307,9,-177.903,0\S,12,1.71769,10,112.09,9,-0.835472,0\\\@

 Total job time:  45.40s(wall), 45.27s(cpu) 
 Mon Feb  7 18:00:20 2022

        *************************************************************
        *                                                           *
        *  Thank you very much for using Q-Chem.  Have a nice day.  *
        *                                                           *
        *************************************************************


