23
 energy: -42.295884462617 gnorm: 0.000055103248 xtb: 6.5.0 (unknown)
C           -2.75438664430000        3.41860274870000        0.03795974350000
C           -1.56772281720000        2.82698562530000       -0.02280331600000
C           -1.30498674290000        1.39182391890000       -0.01449718580000
C           -2.32323823770000        0.43685230200000       -0.00761942550000
C           -2.04563456900000       -0.91936941380000        0.00079507790000
C           -3.12488090130000       -1.95657110150000        0.00981887330000
C           -0.71182354930000       -1.30676553780000        0.00252412160000
F           -0.43270159240000       -2.63096112950000        0.01065034230000
C            0.34549333100000       -0.39452609420000       -0.00579967450000
C            1.70515393930000       -0.91011446850000       -0.00524267450000
C            2.83883846220000       -0.22596831990000       -0.00169219590000
F            2.99897810570000        1.09233537000000        0.00184427070000
F            4.03674742620000       -0.80426378660000       -0.00108673630000
C            0.01880008060000        0.95999694310000       -0.01556806560000
H           -2.84286647270000        4.49114611160000        0.02719011220000
H           -3.67981396980000        2.87273712920000        0.10273541430000
H           -0.67862489070000        3.44226490940000       -0.08010188330000
H           -3.35480312810000        0.75120758560000       -0.01224255470000
H           -4.10635639040000       -1.49378407210000       -0.03682024900000
H           -3.05965464250000       -2.55824083460000        0.91566128990000
H           -3.00788683600000       -2.62971103460000       -0.83829119300000
H            1.81186712910000       -1.98535969330000       -0.00667106690000
H            0.80516175640000        1.69676550970000       -0.02283537580000
