
Running Job 1 of 1 fragments/A005/conf-0/spe_input.inp
qchem fragments/A005/conf-0/spe_input.inp_363611.0 /gpfs/fs0/scratch/a/aspuru/rhickman/descriptor_computation/qchem363611/ 0
/scinet/niagara/software/commercial/qc52/exe/qcprog.exe_s fragments/A005/conf-0/spe_input.inp_363611.0 /gpfs/fs0/scratch/a/aspuru/rhickman/descriptor_computation/qchem363611/
                  Welcome to Q-Chem
     A Quantum Leap Into The Future Of Chemistry


 Q-Chem 5.2, Q-Chem, Inc., Pleasanton, CA (2019)

 License issued to: SRG Alan Aspuru-Guzik, University of Toronto

 Yihan Shao,  Zhengting Gan,  E. Epifanovsky,  A. T. B. Gilbert,  M. Wormit,  
 J. Kussmann,  A. W. Lange,  A. Behn,  Jia Deng,  Xintian Feng,  D. Ghosh,  
 M. Goldey,  P. R. Horn,  L. D. Jacobson,  I. Kaliman,  T. Kus,  A. Landau,  
 Jie Liu,  E. I. Proynov,  R. M. Richard,  R. P. Steele,  E. J. Sundstrom,  
 H. L. Woodcock III,  P. M. Zimmerman,  D. Zuev,  B. Albrecht,  E. Alguire,  
 S. A. Baeppler,  D. Barton,  Z. Benda,  Y. A. Bernard,  E. J. Berquist,  
 K. B. Bravaya,  H. Burton,  D. Casanova,  Chun-Min Chang,  Yunqing Chen,  
 A. Chien,  K. D. Closser,  M. P. Coons,  S. Coriani,  S. Dasgupta,  
 A. L. Dempwolff,  M. Diedenhofen,  Hainam Do,  R. G. Edgar,  Po-Tung Fang,  
 S. Faraji,  S. Fatehi,  Qingguo Feng,  K. D. Fenk,  J. Fosso-Tande,  
 J. Gayvert,  Qinghui Ge,  A. Ghysels,  G. Gidofalvi,  J. Gomes,  
 J. Gonthier,  A. Gunina,  D. Hait,  M. W. D. Hanson-Heine,  
 P. H. P. Harbach,  A. W. Hauser,  M. F. Herbst,  J. E. Herr,  
 E. G. Hohenstein,  Z. C. Holden,  Kerwin Hui,  B. C. Huynh,  T.-C. Jagau,  
 Hyunjun Ji,  B. Kaduk,  K. Khistyaev,  Jaehoon Kim,  P. Klunzinger,  K. Koh,  
 D. Kosenkov,  L. Koulias,  T. Kowalczyk,  C. M. Krauter,  A. Kunitsa,  
 Ka Un Lao,  A. Laurent,  K. V. Lawler,  Joonho Lee,  D. Lefrancois,  
 S. Lehtola,  D. S. Levine,  Yi-Pei Li,  You-Sheng Lin,  Fenglai Liu,  
 E. Livshits,  A. Luenser,  P. Manohar,  E. Mansoor,  S. F. Manzer,  
 Shan-Ping Mao,  Yuezhi Mao,  N. Mardirossian,  A. V. Marenich,  
 T. Markovich,  L. A. Martinez-Martinez,  S. A. Maurer,  N. J. Mayhall,  
 S. C. McKenzie,  J.-M. Mewes,  P. Morgante,  A. F. Morrison,  
 J. W. Mullinax,  K. Nanda,  T. S. Nguyen-Beck,  R. Olivares-Amaya,  
 J. A. Parkhill,  Zheng Pei,  T. M. Perrine,  F. Plasser,  P. Pokhilko,  
 S. Prager,  A. Prociuk,  E. Ramos,  D. R. Rehn,  F. Rob,  M. Scheurer,  
 M. Schneider,  N. Sergueev,  S. M. Sharada,  S. Sharma,  D. W. Small,  
 T. Stauch,  T. Stein,  Yu-Chuan Su,  A. J. W. Thom,  A. Tkatchenko,  
 T. Tsuchimochi,  N. M. Tubman,  L. Vogt,  M. L. Vidal,  O. Vydrov,  
 M. A. Watson,  J. Wenzel,  M. de Wergifosse,  T. A. Wesolowski,  A. White,  
 J. Witte,  A. Yamada,  Jun Yang,  K. Yao,  S. Yeganeh,  S. R. Yost,  
 Zhi-Qiang You,  A. Zech,  Igor Ying Zhang,  Xing Zhang,  Yan Zhao,  
 Ying Zhu,  B. R. Brooks,  G. K. L. Chan,  C. J. Cramer,  M. S. Gordon,  
 W. J. Hehre,  A. Klamt,  M. W. Schmidt,  C. D. Sherrill,  D. G. Truhlar,  
 A. Aspuru-Guzik,  R. Baer,  A. T. Bell,  N. A. Besley,  Jeng-Da Chai,  
 A. E. DePrince, III,  R. A. DiStasio Jr.,  A. Dreuw,  B. D. Dunietz,  
 T. R. Furlani,  Chao-Ping Hsu,  Yousung Jung,  Jing Kong,  D. S. Lambrecht,  
 WanZhen Liang,  C. Ochsenfeld,  V. A. Rassolov,  L. V. Slipchenko,  
 J. E. Subotnik,  T. Van Voorhis,  J. M. Herbert,  A. I. Krylov,  
 P. M. W. Gill,  M. Head-Gordon

 Contributors to earlier versions of Q-Chem not listed above: 
 R. D. Adamson,  B. Austin,  J. Baker,  G. J. O. Beran,  K. Brandhorst,  
 S. T. Brown,  E. F. C. Byrd,  A. K. Chakraborty,  C.-L. Cheng,  
 Siu Hung Chien,  D. M. Chipman,  D. L. Crittenden,  H. Dachsel,  
 R. J. Doerksen,  A. D. Dutoi,  L. Fusti-Molnar,  W. A. Goddard III,  
 A. Golubeva-Zadorozhnaya,  S. R. Gwaltney,  G. Hawkins,  A. Heyden,  
 S. Hirata,  G. Kedziora,  F. J. Keil,  C. Kelley,  Jihan Kim,  R. A. King,  
 R. Z. Khaliullin,  P. P. Korambath,  W. Kurlancheek,  A. M. Lee,  M. S. Lee,  
 S. V. Levchenko,  Ching Yeh Lin,  D. Liotard,  R. C. Lochan,  I. Lotan,  
 P. E. Maslen,  N. Nair,  D. P. O'Neill,  D. Neuhauser,  E. Neuscamman,  
 C. M. Oana,  R. Olson,  B. Peters,  R. Peverati,  P. A. Pieniazek,  
 Y. M. Rhee,  J. Ritchie,  M. A. Rohrdanz,  E. Rosta,  N. J. Russ,  
 H. F. Schaefer III,  N. E. Schultz,  N. Shenvi,  A. C. Simmonett,  A. Sodt,  
 D. Stuck,  K. S. Thanthiriwatte,  V. Vanovschi,  Tao Wang,  A. Warshel,  
 C. F. Williams,  Q. Wu,  X. Xu,  W. Zhang

 Please cite Q-Chem as follows:
 Y. Shao et al., Mol. Phys. 113, 184-215 (2015)
 DOI: 10.1080/00268976.2014.952696

 Q-Chem 5.2.1 for Intel X86 EM64T Linux

 Parts of Q-Chem use Armadillo 8.300.2 (Tropical Shenanigans).
 http://arma.sourceforge.net/

 Q-Chem begins on Tue Feb  8 16:49:40 2022  

Host: 
0

     Scratch files written to /gpfs/fs0/scratch/a/aspuru/rhickman/descriptor_computation/qchem363611//
 Jul1719 |scratch|qcdevops|jenkins|workspace|build_RNUM -1
Processing $rem in /scinet/niagara/software/commercial/qc52/config/preferences:
	 MEM_TOTAL  4000 
NAlpha2: 200
NElect   200
Mult     1

Checking the input file for inconsistencies... 	...done.

--------------------------------------------------------------
User input:
--------------------------------------------------------------
$molecule
0 1
F         6.79302042190000   -3.25894884740000   -0.08943213850000
C         5.58564048610000   -2.71827366730000    0.08521503440000
F         4.83172627740000   -3.56898454280000    0.77506623620000
C         5.25466735080000   -1.52190688820000   -0.38012274910000
C         3.98912229480000   -0.82290534990000   -0.26335418840000
C         3.87056207820000    0.43785934870000   -0.85667150830000
C         2.69842746800000    1.15535224270000   -0.78723954130000
C         1.58975286430000    0.63703571980000   -0.11229440120000
N         0.40153850890000    1.35621788220000   -0.03743826070000
C        -0.83041161160000    0.68854054250000   -0.02724208080000
C        -1.87588115830000    1.14608604740000    0.77388523370000
C        -3.09179631630000    0.49565174740000    0.77273420720000
C        -3.30147477220000   -0.63615781790000   -0.01349956630000
C        -4.59541172790000   -1.33118349690000   -0.00608073160000
C        -5.78888527790000   -0.61243255540000    0.01549815650000
C        -7.00588798840000   -1.26776056060000    0.01920857830000
C        -7.05228462710000   -2.65176625610000    0.00624478620000
C        -5.87249615080000   -3.37670197710000   -0.01256614230000
C        -4.65454185870000   -2.72323754350000   -0.02102739610000
C        -2.25016746430000   -1.09045343200000   -0.80830739150000
C        -1.03583275590000   -0.43746921990000   -0.82376929670000
C         0.42297868940000    2.75660989180000    0.02892866550000
C         1.39398317350000    3.41502745390000    0.78221434620000
C         1.40727554940000    4.79495749930000    0.84450662370000
C         0.45290346220000    5.53717932860000    0.16821928430000
C        -0.51758767300000    4.88691219870000   -0.57622712660000
C        -0.53448780990000    3.50764755090000   -0.65132566120000
C         1.70323270220000   -0.62140993600000    0.48527874920000
C         2.87722545040000   -1.33677821490000    0.41014101880000
H         6.03982836350000   -1.00935881290000   -0.91750327510000
H         4.71338292690000    0.85372283590000   -1.38933316620000
H         2.62697911310000    2.12214052220000   -1.26307256870000
H        -1.72417502270000    2.01267161580000    1.40079407330000
H        -3.88363005730000    0.85242606370000    1.41473942130000
H        -5.76008863960000    0.46761152760000    0.00783052860000
H        -7.92306257210000   -0.69670378960000    0.03001260600000
H        -8.00354954710000   -3.16307189300000    0.01096116960000
H        -5.90225205250000   -4.45671815900000   -0.01840058100000
H        -3.73784167910000   -3.29498797010000   -0.01792943050000
H        -2.39733093120000   -1.94949661370000   -1.44612542400000
H        -0.23741087830000   -0.79143025570000   -1.45958774390000
H         2.13148070650000    2.83729682260000    1.32002675810000
H         2.16314466060000    5.29352879710000    1.43317060920000
H         0.46484332780000    6.61509892100000    0.22196076710000
H        -1.26309657280000    5.45793648460000   -1.10967983990000
H        -1.28677422780000    3.00186734020000   -1.23874786490000
H         0.85926191970000   -1.03078520250000    1.02023718530000
H         2.92926574540000   -2.30005343570000    0.89011695510000
$end

$rem
BASIS = 6-31G*
GUI = 2
METHOD = B3LYP
PRINT_ORBITALS false
MOLDEN_FORMAT false
--------------------------------------------------------------
 ----------------------------------------------------------------
             Standard Nuclear Orientation (Angstroms)
    I     Atom           X                Y                Z
 ----------------------------------------------------------------
    1      F      -6.7637386743    -3.5187669728     0.0628154899
    2      C      -5.5737968230    -2.9395954006    -0.1080536862
    3      F      -4.7921611843    -3.7638796790    -0.7991336128
    4      C      -5.2816614137    -1.7347855024     0.3614843327
    5      C      -4.0386952105    -0.9957039591     0.2490751421
    6      C      -3.9611201957     0.2663512406     0.8464095394
    7      C      -2.8121825303     1.0208112067     0.7812267493
    8      C      -1.6865172832     0.5399409427     0.1066869969
    9      N      -0.5215523598     1.2966151907     0.0361137107
   10      C       0.7309412144     0.6683179779     0.0260862282
   11      C       1.7627383140     1.1612025437    -0.7717978399
   12      C       2.9986398427     0.5495969666    -0.7704545328
   13      C       3.2427390214    -0.5774191641     0.0127259864
   14      C       4.5580497391    -1.2310965510     0.0055031955
   15      C       5.7281954572    -0.4748506976    -0.0117851346
   16      C       6.9653471391    -1.0912981061    -0.0153161055
   17      C       7.0555316995    -2.4731738820    -0.0064528053
   18      C       5.8992646948    -3.2351595177     0.0080731792
   19      C       4.6612129585    -2.6206194879     0.0163476319
   20      C       2.2050147751    -1.0672208975     0.8042900649
   21      C       0.9705842622    -0.4530677692     0.8195700989
   22      C      -0.5872223673     2.6958235695    -0.0260585794
   23      C      -1.5773270145     3.3254779189    -0.7790731203
   24      C      -1.6342121010     4.7044801618    -0.8372181661
   25      C      -0.7049620892     5.4744664021    -0.1569979845
   26      C       0.2843861683     4.8529693009     0.5872010621
   27      C       0.3448346351     3.4747069580     0.6581607005
   28      C      -1.7590807795    -0.7196224188    -0.4948871794
   29      C      -2.9099525126    -1.4720352409    -0.4239955377
   30      H      -6.0835622604    -1.2490131573     0.8990170627
   31      H      -4.8175818426     0.6536766130     1.3788288929
   32      H      -2.7721879475     1.9879084556     1.2601055014
   33      H       1.5847148510     2.0244744566    -1.3963530760
   34      H       3.7798532259     0.9332401578    -1.4099721891
   35      H       5.6651942255     0.6037111771    -0.0009045410
   36      H       7.8639924452    -0.4914540541    -0.0227663871
   37      H       8.0225196119    -2.9540835502    -0.0110261039
   38      H       5.9632011642    -4.3137046740     0.0106963561
   39      H       3.7630871173    -3.2210990469     0.0098947512
   40      H       2.3782406708    -1.9231316560     1.4397691592
   41      H       0.1827073396    -0.8340886870     1.4528978358
   42      H      -2.2952535878     2.7263410524    -1.3199371831
   43      H      -2.4045033637     5.1806750868    -1.4257132843
   44      H      -0.7509446849     6.5516275957    -0.2075026272
   45      H       1.0105397922     5.4456703181     1.1236994038
   46      H       1.1117754053     2.9911971412     1.2453858989
   47      H      -0.9016714120    -1.1004193744    -1.0295816473
   48      H      -2.9306531088    -2.4349938893    -0.9069721102
 ----------------------------------------------------------------
 Molecular Point Group                 C1    NOp =  1
 Largest Abelian Subgroup              C1    NOp =  1
 Nuclear Repulsion Energy =        2417.01817532 hartrees
 There are      100 alpha and      100 beta electrons
 Requested basis set is 6-31G(d)
 There are 154 shells and 473 basis functions

 Total QAlloc Memory Limit   4000 MB
 Mega-Array Size       188 MB
 MEM_STATIC part       192 MB
 A cutoff of  1.0D-08 yielded   4768 shell pairs
 There are     47092 function pairs
 Smallest overlap matrix eigenvalue = 3.50E-04

 Scale SEOQF with 1.000000e-02/1.000000e-02/1.000000e+00

 Standard Electronic Orientation quadrupole field applied
 Nucleus-field energy     =    -0.0000000504 hartrees
 Guess from superposition of atomic densities
 Warning:  Energy on first SCF cycle will be non-variational
 SAD guess density has 200.000000 electrons

 -----------------------------------------------------------------------
  General SCF calculation program by
  Eric Jon Sundstrom, Paul Horn, Yuezhi Mao, Dmitri Zuev, Alec White,
  David Stuck, Shaama M.S., Shane Yost, Joonho Lee, David Small,
  Daniel Levine, Susi Lehtola, Hugh Burton, Evgeny Epifanovsky,
  Bang C. Huynh
 -----------------------------------------------------------------------
 Exchange:     0.2000 Hartree-Fock + 0.0800 Slater + 0.7200 B88
 Correlation:  0.1900 VWN1RPA + 0.8100 LYP
 Using SG-1 standard quadrature grid
 A restricted SCF calculation will be
 performed using DIIS
 SCF converges when DIIS error is below 1.0e-05
 ---------------------------------------
  Cycle       Energy         DIIS error
 ---------------------------------------
    1   -1264.1060844062      3.80e-02  
    2   -1256.2016421667      3.72e-03  
    3   -1255.9985637260      4.65e-03  
    4   -1256.5737155372      1.22e-03  
    5   -1256.6129601406      4.28e-04  
    6   -1256.6173602156      2.15e-04  
    7   -1256.6187323616      4.65e-05  
    8   -1256.6187829991      2.18e-05  
    9   -1256.6187968354      4.40e-06  Convergence criterion met
 ---------------------------------------
 SCF time:   CPU 161.74s  wall 162.00s 
 SCF   energy in the final basis set =    -1256.6187968354
 Total energy in the final basis set =    -1256.6187968354
 
 --------------------------------------------------------------
 
                    Orbital Energies (a.u.)
 --------------------------------------------------------------
 
 Alpha MOs
 -- Occupied --
-24.7399 -24.7291 -14.3691 -10.3506 -10.2287 -10.2280 -10.2277 -10.1997
-10.1993 -10.1924 -10.1911 -10.1902 -10.1890 -10.1889 -10.1880 -10.1879
-10.1874 -10.1865 -10.1863 -10.1861 -10.1860 -10.1859 -10.1857 -10.1851
-10.1850 -10.1839 -10.1837 -10.1836 -10.1835  -1.2798  -1.2192  -0.9825
 -0.8718  -0.8659  -0.8556  -0.8432  -0.8033  -0.7795  -0.7605  -0.7535
 -0.7503  -0.7463  -0.7428  -0.7332  -0.7037  -0.6493  -0.6393  -0.6244
 -0.6154  -0.6120  -0.6057  -0.5933  -0.5891  -0.5721  -0.5669  -0.5426
 -0.5393  -0.5291  -0.5169  -0.5139  -0.4950  -0.4772  -0.4771  -0.4659
 -0.4594  -0.4516  -0.4461  -0.4424  -0.4419  -0.4363  -0.4337  -0.4327
 -0.4274  -0.4258  -0.4251  -0.4190  -0.4178  -0.4073  -0.3848  -0.3834
 -0.3770  -0.3746  -0.3716  -0.3656  -0.3601  -0.3528  -0.3473  -0.3437
 -0.3375  -0.3362  -0.3240  -0.2913  -0.2707  -0.2617  -0.2526  -0.2514
 -0.2502  -0.2405  -0.2254  -0.1774
 -- Virtual --
 -0.0317  -0.0226  -0.0144   0.0027   0.0065   0.0075   0.0099   0.0374
  0.0753   0.0887   0.0956   0.0996   0.1092   0.1226   0.1306   0.1411
  0.1427   0.1452   0.1572   0.1579   0.1600   0.1611   0.1638   0.1776
  0.1788   0.1822   0.1855   0.1876   0.1905   0.1917   0.1967   0.1981
  0.2065   0.2166   0.2206   0.2557   0.2650   0.2683   0.2809   0.2929
  0.2951   0.3076   0.3087   0.3136   0.3187   0.3223   0.3299   0.3401
  0.3512   0.3682   0.3738   0.3869   0.3899   0.3970   0.4155   0.4222
  0.4545   0.4679   0.4843   0.5009   0.5046   0.5103   0.5160   0.5250
  0.5299   0.5311   0.5406   0.5443   0.5451   0.5525   0.5564   0.5597
  0.5609   0.5652   0.5683   0.5757   0.5781   0.5810   0.5836   0.5863
  0.5868   0.5908   0.5956   0.5970   0.5989   0.6006   0.6050   0.6068
  0.6096   0.6098   0.6131   0.6152   0.6205   0.6209   0.6237   0.6297
  0.6313   0.6364   0.6442   0.6475   0.6540   0.6591   0.6731   0.6778
  0.6810   0.6826   0.6901   0.7018   0.7040   0.7348   0.7505   0.7610
  0.7816   0.8041   0.8051   0.8105   0.8138   0.8195   0.8283   0.8330
  0.8359   0.8398   0.8414   0.8452   0.8463   0.8471   0.8486   0.8556
  0.8661   0.8683   0.8722   0.8731   0.8801   0.8875   0.9028   0.9112
  0.9188   0.9232   0.9319   0.9451   0.9493   0.9623   0.9681   0.9749
  0.9821   0.9888   1.0045   1.0066   1.0112   1.0208   1.0286   1.0378
  1.0453   1.0571   1.0638   1.0813   1.1037   1.1123   1.1238   1.1244
  1.1322   1.1536   1.1571   1.1628   1.1646   1.1671   1.1756   1.1791
  1.1924   1.1926   1.2021   1.2173   1.2226   1.2276   1.2334   1.2555
  1.2579   1.2636   1.2851   1.2916   1.3042   1.3083   1.3202   1.3471
  1.3641   1.3730   1.4026   1.4076   1.4159   1.4221   1.4290   1.4339
  1.4397   1.4428   1.4542   1.4614   1.4683   1.4709   1.4786   1.4809
  1.4841   1.4908   1.4944   1.4994   1.5000   1.5095   1.5118   1.5167
  1.5172   1.5261   1.5281   1.5330   1.5981   1.6479   1.6691   1.7089
  1.7161   1.7288   1.7421   1.7651   1.7689   1.7817   1.7871   1.7902
  1.7993   1.8053   1.8133   1.8401   1.8409   1.8423   1.8452   1.8493
  1.8568   1.8597   1.8771   1.8857   1.8995   1.9076   1.9124   1.9265
  1.9351   1.9377   1.9459   1.9597   1.9660   1.9760   1.9772   1.9865
  1.9965   1.9993   2.0134   2.0187   2.0379   2.0418   2.0676   2.0711
  2.0774   2.0821   2.0866   2.0916   2.1096   2.1346   2.1374   2.1418
  2.1466   2.1558   2.1621   2.1642   2.1665   2.1745   2.1772   2.1819
  2.1910   2.2190   2.2326   2.2415   2.2524   2.2631   2.2799   2.2990
  2.3033   2.3099   2.3174   2.3214   2.3253   2.3293   2.3311   2.3337
  2.3559   2.3582   2.3673   2.4221   2.4357   2.4434   2.4898   2.5191
  2.5259   2.5394   2.5564   2.5710   2.5840   2.5982   2.6030   2.6205
  2.6322   2.6416   2.6475   2.6606   2.6653   2.6782   2.6799   2.6950
  2.7090   2.7253   2.7452   2.7489   2.7619   2.7631   2.7677   2.7697
  2.7718   2.7816   2.7874   2.7982   2.8467   2.8621   2.8718   2.8893
  2.9198   2.9517   2.9657   2.9997   3.0011   3.0243   3.0613   3.1481
  3.1816   3.2409   3.2872   3.3334   3.4136   3.4571   3.4870   3.5110
  4.0825   4.1040   4.1057   4.1178   4.1221   4.1243   4.1305   4.1345
  4.1371   4.1484   4.1788   4.1928   4.2124   4.2862   4.3153   4.3343
  4.3365   4.3459   4.3504   4.3789   4.4118   4.4635   4.5131   4.6805
  4.7098   4.7492   4.8006   4.8279   5.2857
 --------------------------------------------------------------
 
          Ground-State Mulliken Net Atomic Charges

     Atom                 Charge (a.u.)
  ----------------------------------------
      1 F                    -0.251981
      2 C                     0.536784
      3 F                    -0.237950
      4 C                    -0.298694
      5 C                     0.198698
      6 C                    -0.205807
      7 C                    -0.176483
      8 C                     0.298612
      9 N                    -0.652620
     10 C                     0.284511
     11 C                    -0.172603
     12 C                    -0.185133
     13 C                     0.092359
     14 C                     0.088112
     15 C                    -0.171808
     16 C                    -0.132931
     17 C                    -0.125047
     18 C                    -0.133104
     19 C                    -0.171447
     20 C                    -0.185794
     21 C                    -0.172912
     22 C                     0.277077
     23 C                    -0.165715
     24 C                    -0.138358
     25 C                    -0.127369
     26 C                    -0.138276
     27 C                    -0.164851
     28 C                    -0.176322
     29 C                    -0.205694
     30 H                     0.156929
     31 H                     0.129036
     32 H                     0.149456
     33 H                     0.148024
     34 H                     0.134742
     35 H                     0.128856
     36 H                     0.127800
     37 H                     0.126731
     38 H                     0.128098
     39 H                     0.129422
     40 H                     0.135093
     41 H                     0.148292
     42 H                     0.147309
     43 H                     0.131101
     44 H                     0.126078
     45 H                     0.131015
     46 H                     0.146870
     47 H                     0.149794
     48 H                     0.140100
  ----------------------------------------
  Sum of atomic charges =     0.000000

 -----------------------------------------------------------------
                    Cartesian Multipole Moments
 -----------------------------------------------------------------
    Charge (ESU x 10^10)
                 0.0000
    Dipole Moment (Debye)
         X       0.7705      Y       1.4739      Z       0.3262
       Tot       1.6949
    Quadrupole Moments (Debye-Ang)
        XX    -157.5462     XY      -7.6479     YY    -155.0296
        XZ      -1.9228     YZ      -1.3230     ZZ    -165.6712
    Octopole Moments (Debye-Ang^2)
       XXX       4.5589    XXY      22.0985    XYY      16.3025
       YYY     -11.4962    XXZ       9.2381    XYZ       4.7983
       YYZ      -0.8589    XZZ     -47.5597    YZZ     -14.0858
       ZZZ      -6.9743
    Hexadecapole Moments (Debye-Ang^3)
      XXXX  -13856.4050   XXXY     -99.6523   XXYY   -3486.4772
      XYYY      70.4342   YYYY   -6016.5688   XXXZ    -106.9400
      XXYZ     -18.6996   XYYZ      61.8321   YYYZ       4.3284
      XXZZ   -2587.3750   XYZZ     141.7242   YYZZ   -1167.7929
      XZZZ      31.7816   YZZZ      21.8728   ZZZZ    -485.5673
 -----------------------------------------------------------------
Archival summary:
1\1\nia2015.scinet.local\SP\ProcedureUnspecified\6-31G*\212619\rhickman\TueFeb816:52:232022TueFeb816:52:232022\0\\#,ProcedureUnspecified,6-31G*,\\0,1\N\C,1,1.39093\C,2,1.39763,1,120.789\H,3,1.07991,2,119.493,1,-0.540069,0\C,3,1.37605,2,120.444,1,179.987,0\H,5,1.08029,3,119.257,2,179.565,0\C,2,1.39773,1,120.789,3,-179.976,0\H,7,1.07984,2,119.319,1,-0.725151,0\C,7,1.37683,2,120.91,1,179.852,0\H,9,1.07749,7,118.775,2,179.51,0\C,9,1.39785,7,120.9,2,0.144428,0\C,1,1.40128,2,120.335,3,146.613,0\C,12,1.39433,1,120.465,2,141.853,0\H,13,1.08028,12,119.431,1,-0.96889,0\C,13,1.37895,12,120.39,1,179.356,0\H,15,1.08003,13,119.351,12,178.767,0\C,15,1.39396,13,121.07,12,0.655507,0\C,17,1.39404,15,118.212,13,-0.423475,0\H,18,1.08001,17,119.548,15,-178.352,0\C,18,1.37885,17,121.08,15,-0.277421,0\H,20,1.08029,18,120.154,17,-178.831,0\C,1,1.40213,2,120.391,3,-33.401,0\C,22,1.39411,1,120.295,2,141.612,0\H,23,1.08019,22,119.434,1,-0.656272,0\C,23,1.38141,22,120.196,1,179.504,0\H,25,1.08001,23,119.512,22,179.845,0\C,25,1.38524,23,120.43,22,0.346346,0\H,27,1.07932,25,120.22,23,179.802,0\C,27,1.38531,25,119.571,23,-0.266482,0\H,29,1.08002,27,120.06,25,-179.548,0\C,29,1.3814,27,120.435,25,-0.126297,0\H,31,1.08024,29,120.347,27,-179.241,0\C,11,1.45046,9,123.756,7,179.972,0\H,33,1.08072,11,116.447,9,-179.3,0\C,33,1.32566,11,128.645,9,0.801505,0\F,35,1.32966,33,128.167,11,-0.0168649,0\F,35,1.33439,33,123.068,11,179.934,0\C,17,1.46881,15,120.922,13,179.629,0\C,38,1.39336,17,120.701,15,40.4786,0\H,39,1.08046,38,119.519,17,1.16017,0\C,39,1.38223,38,120.639,17,179.843,0\H,41,1.08048,39,119.791,38,-179.632,0\C,41,1.38484,39,120.218,38,0.229959,0\H,43,1.07998,41,120.174,39,179.889,0\C,43,1.38484,41,119.653,39,-0.0998328,0\H,45,1.08044,43,119.992,41,179.734,0\C,45,1.38221,43,120.218,41,-0.126722,0\H,47,1.08039,45,119.831,43,178.913,0\\\@

 Total job time:  162.70s(wall), 162.26s(cpu) 
 Tue Feb  8 16:52:23 2022

        *************************************************************
        *                                                           *
        *  Thank you very much for using Q-Chem.  Have a nice day.  *
        *                                                           *
        *************************************************************


