23
 energy: -40.528194314390 gnorm: 0.000088232603 xtb: 6.4.1 (23d549d)
C        -3.95210105780000    1.62082718480000   -0.00185845870000
N        -3.17761205370000    0.41352915960000    0.00020894320000
C        -3.67154980110000   -0.86144480100000    0.00186946320000
C        -2.65596260140000   -1.76782025780000    0.00256133710000
C        -1.81571026500000    0.34546010240000   -0.00023689410000
C        -1.44374491060000   -1.02354688680000    0.00101308360000
C        -0.09710125170000   -1.36827402880000    0.00006326340000
C         0.86494319660000   -0.36593543270000   -0.00159000590000
C         2.26090613960000   -0.77101919790000   -0.00309996080000
C         3.35108611850000   -0.01886680290000    0.00008384420000
F         3.44224560100000    1.30862164060000    0.00591823170000
F         4.58598343540000   -0.52945038980000   -0.00211251220000
C         0.46867432070000    0.98716725160000   -0.00225989060000
C        -0.85654510820000    1.35295353830000   -0.00168088660000
H        -5.01145154670000    1.37061978020000   -0.00414398840000
H        -3.72894504080000    2.21950899710000   -0.88876010350000
H        -3.73295422600000    2.22033986830000    0.88550601770000
H        -4.73221193400000   -1.02972994770000    0.00248678330000
H        -2.75003052800000   -2.83511142830000    0.00393845200000
H         0.19581117270000   -2.40787023820000    0.00077055070000
H         2.44833916640000   -1.83558854310000   -0.00723830940000
H         1.21912213330000    1.75959231050000   -0.00358021840000
H        -1.13891936970000    2.39495265500000   -0.00242440470000
