
Running Job 1 of 1 fragments/A030/conf-7/spe_input.inp
qchem fragments/A030/conf-7/spe_input.inp_86162.0 /gpfs/fs0/scratch/a/aspuru/rhickman/descriptor_computation/qchem86162/ 0
/scinet/niagara/software/commercial/qc52/exe/qcprog.exe_s fragments/A030/conf-7/spe_input.inp_86162.0 /gpfs/fs0/scratch/a/aspuru/rhickman/descriptor_computation/qchem86162/
                  Welcome to Q-Chem
     A Quantum Leap Into The Future Of Chemistry


 Q-Chem 5.2, Q-Chem, Inc., Pleasanton, CA (2019)

 License issued to: SRG Alan Aspuru-Guzik, University of Toronto

 Yihan Shao,  Zhengting Gan,  E. Epifanovsky,  A. T. B. Gilbert,  M. Wormit,  
 J. Kussmann,  A. W. Lange,  A. Behn,  Jia Deng,  Xintian Feng,  D. Ghosh,  
 M. Goldey,  P. R. Horn,  L. D. Jacobson,  I. Kaliman,  T. Kus,  A. Landau,  
 Jie Liu,  E. I. Proynov,  R. M. Richard,  R. P. Steele,  E. J. Sundstrom,  
 H. L. Woodcock III,  P. M. Zimmerman,  D. Zuev,  B. Albrecht,  E. Alguire,  
 S. A. Baeppler,  D. Barton,  Z. Benda,  Y. A. Bernard,  E. J. Berquist,  
 K. B. Bravaya,  H. Burton,  D. Casanova,  Chun-Min Chang,  Yunqing Chen,  
 A. Chien,  K. D. Closser,  M. P. Coons,  S. Coriani,  S. Dasgupta,  
 A. L. Dempwolff,  M. Diedenhofen,  Hainam Do,  R. G. Edgar,  Po-Tung Fang,  
 S. Faraji,  S. Fatehi,  Qingguo Feng,  K. D. Fenk,  J. Fosso-Tande,  
 J. Gayvert,  Qinghui Ge,  A. Ghysels,  G. Gidofalvi,  J. Gomes,  
 J. Gonthier,  A. Gunina,  D. Hait,  M. W. D. Hanson-Heine,  
 P. H. P. Harbach,  A. W. Hauser,  M. F. Herbst,  J. E. Herr,  
 E. G. Hohenstein,  Z. C. Holden,  Kerwin Hui,  B. C. Huynh,  T.-C. Jagau,  
 Hyunjun Ji,  B. Kaduk,  K. Khistyaev,  Jaehoon Kim,  P. Klunzinger,  K. Koh,  
 D. Kosenkov,  L. Koulias,  T. Kowalczyk,  C. M. Krauter,  A. Kunitsa,  
 Ka Un Lao,  A. Laurent,  K. V. Lawler,  Joonho Lee,  D. Lefrancois,  
 S. Lehtola,  D. S. Levine,  Yi-Pei Li,  You-Sheng Lin,  Fenglai Liu,  
 E. Livshits,  A. Luenser,  P. Manohar,  E. Mansoor,  S. F. Manzer,  
 Shan-Ping Mao,  Yuezhi Mao,  N. Mardirossian,  A. V. Marenich,  
 T. Markovich,  L. A. Martinez-Martinez,  S. A. Maurer,  N. J. Mayhall,  
 S. C. McKenzie,  J.-M. Mewes,  P. Morgante,  A. F. Morrison,  
 J. W. Mullinax,  K. Nanda,  T. S. Nguyen-Beck,  R. Olivares-Amaya,  
 J. A. Parkhill,  Zheng Pei,  T. M. Perrine,  F. Plasser,  P. Pokhilko,  
 S. Prager,  A. Prociuk,  E. Ramos,  D. R. Rehn,  F. Rob,  M. Scheurer,  
 M. Schneider,  N. Sergueev,  S. M. Sharada,  S. Sharma,  D. W. Small,  
 T. Stauch,  T. Stein,  Yu-Chuan Su,  A. J. W. Thom,  A. Tkatchenko,  
 T. Tsuchimochi,  N. M. Tubman,  L. Vogt,  M. L. Vidal,  O. Vydrov,  
 M. A. Watson,  J. Wenzel,  M. de Wergifosse,  T. A. Wesolowski,  A. White,  
 J. Witte,  A. Yamada,  Jun Yang,  K. Yao,  S. Yeganeh,  S. R. Yost,  
 Zhi-Qiang You,  A. Zech,  Igor Ying Zhang,  Xing Zhang,  Yan Zhao,  
 Ying Zhu,  B. R. Brooks,  G. K. L. Chan,  C. J. Cramer,  M. S. Gordon,  
 W. J. Hehre,  A. Klamt,  M. W. Schmidt,  C. D. Sherrill,  D. G. Truhlar,  
 A. Aspuru-Guzik,  R. Baer,  A. T. Bell,  N. A. Besley,  Jeng-Da Chai,  
 A. E. DePrince, III,  R. A. DiStasio Jr.,  A. Dreuw,  B. D. Dunietz,  
 T. R. Furlani,  Chao-Ping Hsu,  Yousung Jung,  Jing Kong,  D. S. Lambrecht,  
 WanZhen Liang,  C. Ochsenfeld,  V. A. Rassolov,  L. V. Slipchenko,  
 J. E. Subotnik,  T. Van Voorhis,  J. M. Herbert,  A. I. Krylov,  
 P. M. W. Gill,  M. Head-Gordon

 Contributors to earlier versions of Q-Chem not listed above: 
 R. D. Adamson,  B. Austin,  J. Baker,  G. J. O. Beran,  K. Brandhorst,  
 S. T. Brown,  E. F. C. Byrd,  A. K. Chakraborty,  C.-L. Cheng,  
 Siu Hung Chien,  D. M. Chipman,  D. L. Crittenden,  H. Dachsel,  
 R. J. Doerksen,  A. D. Dutoi,  L. Fusti-Molnar,  W. A. Goddard III,  
 A. Golubeva-Zadorozhnaya,  S. R. Gwaltney,  G. Hawkins,  A. Heyden,  
 S. Hirata,  G. Kedziora,  F. J. Keil,  C. Kelley,  Jihan Kim,  R. A. King,  
 R. Z. Khaliullin,  P. P. Korambath,  W. Kurlancheek,  A. M. Lee,  M. S. Lee,  
 S. V. Levchenko,  Ching Yeh Lin,  D. Liotard,  R. C. Lochan,  I. Lotan,  
 P. E. Maslen,  N. Nair,  D. P. O'Neill,  D. Neuhauser,  E. Neuscamman,  
 C. M. Oana,  R. Olson,  B. Peters,  R. Peverati,  P. A. Pieniazek,  
 Y. M. Rhee,  J. Ritchie,  M. A. Rohrdanz,  E. Rosta,  N. J. Russ,  
 H. F. Schaefer III,  N. E. Schultz,  N. Shenvi,  A. C. Simmonett,  A. Sodt,  
 D. Stuck,  K. S. Thanthiriwatte,  V. Vanovschi,  Tao Wang,  A. Warshel,  
 C. F. Williams,  Q. Wu,  X. Xu,  W. Zhang

 Please cite Q-Chem as follows:
 Y. Shao et al., Mol. Phys. 113, 184-215 (2015)
 DOI: 10.1080/00268976.2014.952696

 Q-Chem 5.2.1 for Intel X86 EM64T Linux

 Parts of Q-Chem use Armadillo 8.300.2 (Tropical Shenanigans).
 http://arma.sourceforge.net/

 Q-Chem begins on Mon Feb  7 14:47:45 2022  

Host: 
0

     Scratch files written to /gpfs/fs0/scratch/a/aspuru/rhickman/descriptor_computation/qchem86162//
 Jul1719 |scratch|qcdevops|jenkins|workspace|build_RNUM -1
Processing $rem in /scinet/niagara/software/commercial/qc52/config/preferences:
	 MEM_TOTAL  4000 
NAlpha2: 222
NElect   222
Mult     1

Checking the input file for inconsistencies... 	...done.

--------------------------------------------------------------
User input:
--------------------------------------------------------------
$molecule
0 1
C         1.63101481400000   -0.57117391580000   -3.36564819980000
O         1.06749461240000   -1.10255021970000   -2.17603662790000
C         1.93465539710000   -1.66597928870000   -1.31949612070000
C         1.24697929660000   -2.22362032000000   -0.12330320950000
C         0.24005003630000   -1.53327025210000    0.56425087370000
N        -0.09807251260000   -0.21226151390000    0.23287666730000
C         0.90649590950000    0.70844247190000   -0.04922237760000
C         2.14795026840000    0.60408683600000    0.58143345580000
C         3.15310061760000    1.50185873180000    0.27000785680000
C         4.48372687460000    1.41414261210000    0.96054325380000
F         4.66192549390000    0.27723610700000    1.64272685620000
F         5.51380419430000    1.52099402610000    0.10666785290000
F         4.64427926270000    2.41479846470000    1.85510703490000
C         2.94949614300000    2.52300632880000   -0.64982645790000
C         1.71253229340000    2.63125574390000   -1.26293872270000
C         0.70145773760000    1.73700404380000   -0.97198854870000
C        -1.44548846110000    0.15554479500000    0.19802760110000
C        -1.85721931440000    1.41588651580000    0.63376147290000
C        -3.19058865540000    1.75902596040000    0.60344604400000
C        -4.16170420850000    0.86317956690000    0.14607580590000
C        -5.54775435820000    1.29418513920000    0.14655304500000
C        -6.62362048990000    0.61608537430000   -0.22767060760000
F        -6.68727140020000   -0.62547755730000   -0.69536708100000
F        -7.85476664090000    1.12232129030000   -0.18028632370000
C        -3.74167610200000   -0.39836667240000   -0.28448309890000
C        -2.40835578290000   -0.74480351240000   -0.25984243150000
C        -0.40231088880000   -2.16300005850000    1.62910042190000
C        -0.04325542610000   -3.44064594190000    2.01209602670000
C         0.98287693550000   -4.10539249720000    1.35820581980000
C         1.62620320230000   -3.49303261310000    0.29944442740000
O         3.11552689210000   -1.75382709590000   -1.53310748260000
H         0.79645907910000   -0.21610523640000   -3.96427833860000
H         2.18706398890000   -1.34450452820000   -3.89917086520000
H         2.31014771850000    0.25004594310000   -3.12684432280000
H         2.32653006540000   -0.17525399290000    1.30631630680000
H         3.74730934700000    3.21096848180000   -0.87985567540000
H         1.54048397940000    3.41403869170000   -1.98560157170000
H        -0.25149722100000    1.81425919800000   -1.47279936280000
H        -1.12583421930000    2.11816238070000    1.00516326130000
H        -3.49229102730000    2.73637119430000    0.95008021390000
H        -5.74017106610000    2.29780570260000    0.49777678870000
H        -4.45758487580000   -1.11533409500000   -0.65045436380000
H        -2.09734967190000   -1.71909936990000   -0.60526429030000
H        -1.17959215620000   -1.63264302860000    2.15913233400000
H        -0.55303301840000   -3.91113027410000    2.83914446560000
H         1.27821957700000   -5.09407490610000    1.67223644150000
H         2.42401298180000   -3.99236031330000   -0.22874936330000
$end

$rem
BASIS = 6-31G*
GUI = 2
METHOD = B3LYP
PRINT_ORBITALS false
MOLDEN_FORMAT false
--------------------------------------------------------------
 ----------------------------------------------------------------
             Standard Nuclear Orientation (Angstroms)
    I     Atom           X                Y                Z
 ----------------------------------------------------------------
    1      C       1.5284356986    -0.3301444640    -3.4248826688
    2      O       0.9971847395    -0.9391751977    -2.2578584747
    3      C       1.8853980736    -1.5661626401    -1.4697940083
    4      C       1.2300328899    -2.2010622456    -0.2941501904
    5      C       0.2505754904    -1.5536898590     0.4705671198
    6      N      -0.0863173442    -0.2107547929     0.2420317059
    7      C       0.9169103895     0.7209012916    -0.0069350987
    8      C       2.1761981040     0.5651645058     0.5759596686
    9      C       3.1789128221     1.4759749275     0.2961470975
   10      C       4.5293058192     1.3321169298     0.9371175476
   11      F       4.7186835476     0.1495166282     1.5331697428
   12      F       5.5335708364     1.4914002447     0.0609552851
   13      F       4.7257264600     2.2672652579     1.8932818114
   14      C       2.9558669829     2.5597449897    -0.5440822577
   15      C       1.7016388509     2.7181205569    -1.1093548672
   16      C       0.6924046268     1.8122798105    -0.8495305275
   17      C      -1.4309940391     0.1671339515     0.2747480566
   18      C      -1.8184374089     1.3968018084     0.8092124172
   19      C      -3.1491451263     1.7496798881     0.8443056481
   20      C      -4.1414137000     0.8939063031     0.3566086501
   21      C      -5.5230841106     1.3326355518     0.4301244408
   22      C      -6.6156487916     0.6889770044     0.0436575485
   23      F      -6.7041672952    -0.5167209036    -0.5065487507
   24      F      -7.8404152755     1.1985159389     0.1643143028
   25      C      -3.7455287430    -0.3373748411    -0.1730377785
   26      C      -2.4150721523    -0.6931483302    -0.2140158779
   27      C      -0.3641398705    -2.2516795147     1.5088480130
   28      C      -0.0043724359    -3.5550710593     1.7912012252
   29      C       0.9955287543    -4.1793594040     1.0612219915
   30      C       1.6112481589    -3.4991259474     0.0277806247
   31      O       3.0583705795    -1.6464791722    -1.7257027693
   32      H       0.6789533920     0.0708901402    -3.9712032174
   33      H       2.0612623404    -1.0681172648    -4.0276838555
   34      H       2.2215295584     0.4682006556    -3.1511732940
   35      H       2.3703053279    -0.2637032661     1.2392986629
   36      H       3.7520641432     3.2569257548    -0.7507712414
   37      H       1.5141571616     3.5502265957    -1.7704460223
   38      H      -0.2747763863     1.9301419897    -1.3138282532
   39      H      -1.0700602851     2.0669615328     1.2052836995
   40      H      -3.4317542762     2.7025208105     1.2669278437
   41      H      -5.6960989033     2.3106754359     0.8557303729
   42      H      -4.4783956167    -1.0226654558    -0.5651927773
   43      H      -2.1231008717    -1.6430904782    -0.6355086611
   44      H      -1.1202582450    -1.7544426768     2.0982707021
   45      H      -0.4925145530    -4.0785477112     2.5992403883
   46      H       1.2919552046    -5.1893005901     1.2967757501
   47      H       2.3882047093    -3.9656667392    -0.5583042544
 ----------------------------------------------------------------
 Molecular Point Group                 C1    NOp =  1
 Largest Abelian Subgroup              C1    NOp =  1
 Nuclear Repulsion Energy =        3084.57836144 hartrees
 There are      111 alpha and      111 beta electrons
 Requested basis set is 6-31G(d)
 There are 156 shells and 497 basis functions

 Total QAlloc Memory Limit   4000 MB
 Mega-Array Size       188 MB
 MEM_STATIC part       192 MB
 A cutoff of  1.0D-08 yielded   5298 shell pairs
 There are     56466 function pairs
 Smallest overlap matrix eigenvalue = 3.25E-04

 Scale SEOQF with 1.000000e-02/1.000000e-01/1.000000e-01

 Standard Electronic Orientation quadrupole field applied
 Nucleus-field energy     =     0.0000000271 hartrees
 Guess from superposition of atomic densities
 Warning:  Energy on first SCF cycle will be non-variational
 SAD guess density has 222.000000 electrons

 -----------------------------------------------------------------------
  General SCF calculation program by
  Eric Jon Sundstrom, Paul Horn, Yuezhi Mao, Dmitri Zuev, Alec White,
  David Stuck, Shaama M.S., Shane Yost, Joonho Lee, David Small,
  Daniel Levine, Susi Lehtola, Hugh Burton, Evgeny Epifanovsky,
  Bang C. Huynh
 -----------------------------------------------------------------------
 Exchange:     0.2000 Hartree-Fock + 0.0800 Slater + 0.7200 B88
 Correlation:  0.1900 VWN1RPA + 0.8100 LYP
 Using SG-1 standard quadrature grid
 A restricted SCF calculation will be
 performed using DIIS
 SCF converges when DIIS error is below 1.0e-05
 ---------------------------------------
  Cycle       Energy         DIIS error
 ---------------------------------------
    1   -1597.9468947917      3.64e-02  
    2   -1589.9774334156      4.18e-03  
    3   -1589.3974386721      6.41e-03  
    4   -1590.4002096476      1.52e-03  
    5   -1590.4580411471      5.44e-04  
    6   -1590.4653566521      2.11e-04  
    7   -1590.4666164553      7.07e-05  
    8   -1590.4667593330      2.32e-05  
    9   -1590.4667740663      6.22e-06  Convergence criterion met
 ---------------------------------------
 SCF time:   CPU 212.99s  wall 213.00s 
 SCF   energy in the final basis set =    -1590.4667740663
 Total energy in the final basis set =    -1590.4667740663
 
 --------------------------------------------------------------
 
                    Orbital Energies (a.u.)
 --------------------------------------------------------------
 
 Alpha MOs
 -- Occupied --
-24.7470 -24.7362 -24.7180 -24.7133 -24.7078 -19.1929 -19.1361 -14.3802
-10.4224 -10.3584 -10.3162 -10.2448 -10.2428 -10.2378 -10.2370 -10.2129
-10.2090 -10.2090 -10.2062 -10.2028 -10.2027 -10.2024 -10.2011 -10.1993
-10.1991 -10.1990 -10.1987 -10.1964 -10.1958 -10.1956 -10.1945  -1.2978
 -1.2877  -1.2269  -1.2092  -1.2010  -1.1108  -1.0201  -0.9949  -0.8799
 -0.8777  -0.8612  -0.8121  -0.7905  -0.7839  -0.7720  -0.7598  -0.7588
 -0.7320  -0.7201  -0.6937  -0.6579  -0.6523  -0.6346  -0.6264  -0.6206
 -0.6200  -0.5965  -0.5800  -0.5747  -0.5720  -0.5711  -0.5639  -0.5514
 -0.5360  -0.5214  -0.5201  -0.5102  -0.5037  -0.4966  -0.4833  -0.4805
 -0.4737  -0.4711  -0.4600  -0.4566  -0.4515  -0.4484  -0.4482  -0.4439
 -0.4434  -0.4423  -0.4346  -0.4286  -0.4244  -0.4149  -0.4108  -0.4050
 -0.4040  -0.4019  -0.3936  -0.3866  -0.3859  -0.3847  -0.3777  -0.3750
 -0.3721  -0.3662  -0.3597  -0.3527  -0.3518  -0.3331  -0.3077  -0.2957
 -0.2837  -0.2719  -0.2701  -0.2627  -0.2593  -0.2409  -0.1913
 -- Virtual --
 -0.0468  -0.0342  -0.0287  -0.0115  -0.0073   0.0089   0.0426   0.0639
  0.0819   0.0912   0.0976   0.1142   0.1168   0.1276   0.1348   0.1371
  0.1448   0.1497   0.1514   0.1542   0.1552   0.1570   0.1619   0.1705
  0.1751   0.1768   0.1789   0.1830   0.1855   0.1895   0.1990   0.2101
  0.2292   0.2429   0.2444   0.2530   0.2633   0.2737   0.2811   0.2864
  0.2923   0.2946   0.3063   0.3115   0.3181   0.3306   0.3483   0.3637
  0.3667   0.3801   0.4010   0.4037   0.4101   0.4244   0.4426   0.4549
  0.4758   0.4799   0.4831   0.4942   0.5010   0.5048   0.5083   0.5174
  0.5196   0.5250   0.5343   0.5374   0.5407   0.5447   0.5535   0.5580
  0.5600   0.5641   0.5697   0.5756   0.5774   0.5813   0.5846   0.5858
  0.5893   0.5913   0.5951   0.5978   0.6007   0.6020   0.6042   0.6128
  0.6200   0.6244   0.6308   0.6410   0.6468   0.6496   0.6573   0.6649
  0.6736   0.6764   0.6876   0.6961   0.7079   0.7247   0.7305   0.7420
  0.7460   0.7747   0.7828   0.7897   0.8022   0.8058   0.8148   0.8187
  0.8218   0.8266   0.8297   0.8348   0.8398   0.8407   0.8430   0.8511
  0.8633   0.8680   0.8698   0.8791   0.8821   0.8840   0.8953   0.9139
  0.9145   0.9198   0.9375   0.9497   0.9594   0.9688   0.9749   0.9839
  0.9908   0.9957   1.0029   1.0116   1.0243   1.0293   1.0331   1.0428
  1.0701   1.0810   1.0872   1.0904   1.0949   1.0999   1.1110   1.1134
  1.1182   1.1230   1.1498   1.1553   1.1585   1.1672   1.1686   1.1709
  1.1783   1.1895   1.2070   1.2101   1.2132   1.2205   1.2272   1.2349
  1.2440   1.2606   1.2745   1.2818   1.2931   1.3042   1.3124   1.3285
  1.3392   1.3409   1.3449   1.3559   1.3604   1.3682   1.3860   1.3931
  1.3943   1.4001   1.4032   1.4141   1.4219   1.4372   1.4413   1.4428
  1.4486   1.4605   1.4622   1.4648   1.4728   1.4763   1.4829   1.4863
  1.4903   1.4994   1.5023   1.5045   1.5128   1.5380   1.5620   1.5834
  1.6090   1.6424   1.6463   1.6610   1.6719   1.6774   1.7006   1.7101
  1.7199   1.7243   1.7391   1.7482   1.7578   1.7726   1.7798   1.7804
  1.7885   1.7973   1.8086   1.8160   1.8293   1.8333   1.8339   1.8458
  1.8524   1.8615   1.8643   1.8716   1.8772   1.8824   1.8983   1.9014
  1.9051   1.9191   1.9264   1.9328   1.9382   1.9494   1.9668   1.9737
  1.9806   1.9864   1.9900   1.9941   2.0103   2.0155   2.0164   2.0204
  2.0298   2.0322   2.0370   2.0491   2.0562   2.0645   2.0725   2.0733
  2.0792   2.0972   2.1036   2.1070   2.1207   2.1320   2.1367   2.1429
  2.1514   2.1544   2.1577   2.1655   2.1668   2.1709   2.1994   2.2017
  2.2183   2.2329   2.2366   2.2622   2.2712   2.2825   2.2868   2.2978
  2.2994   2.3027   2.3140   2.3215   2.3252   2.3373   2.3460   2.3546
  2.3616   2.4092   2.4181   2.4239   2.4567   2.4746   2.4827   2.4993
  2.5208   2.5241   2.5517   2.5611   2.5689   2.5934   2.6049   2.6156
  2.6272   2.6415   2.6466   2.6541   2.6628   2.6702   2.6853   2.6913
  2.7060   2.7314   2.7326   2.7487   2.7613   2.7683   2.7767   2.7932
  2.8079   2.8122   2.8303   2.8360   2.8634   2.8893   2.9138   2.9196
  2.9398   2.9546   2.9660   2.9991   3.0286   3.0442   3.0511   3.0583
  3.0712   3.1140   3.1259   3.1514   3.1543   3.2445   3.3016   3.3296
  3.4410   3.4704   3.4820   4.0096   4.0746   4.0942   4.1046   4.1113
  4.1168   4.1271   4.1399   4.1505   4.1816   4.2033   4.2380   4.2838
  4.2910   4.3396   4.3562   4.3849   4.4031   4.4059   4.4215   4.4749
  4.4932   4.5253   4.5618   4.7124   4.7314   4.7764   4.8129   4.8336
  5.2869   5.6355
 --------------------------------------------------------------
 
          Ground-State Mulliken Net Atomic Charges

     Atom                 Charge (a.u.)
  ----------------------------------------
      1 C                    -0.222820
      2 O                    -0.437945
      3 C                     0.539194
      4 C                     0.074788
      5 C                     0.249690
      6 N                    -0.648046
      7 C                     0.294643
      8 C                    -0.230213
      9 C                     0.005709
     10 C                     0.777756
     11 F                    -0.261517
     12 F                    -0.264873
     13 F                    -0.268967
     14 C                    -0.162150
     15 C                    -0.149677
     16 C                    -0.159292
     17 C                     0.289875
     18 C                    -0.174603
     19 C                    -0.207155
     20 C                     0.200562
     21 C                    -0.300609
     22 C                     0.541485
     23 F                    -0.235896
     24 F                    -0.248434
     25 C                    -0.206286
     26 C                    -0.169361
     27 C                    -0.165507
     28 C                    -0.128401
     29 C                    -0.132330
     30 C                    -0.170257
     31 O                    -0.478828
     32 H                     0.161467
     33 H                     0.169474
     34 H                     0.175408
     35 H                     0.172135
     36 H                     0.150021
     37 H                     0.139102
     38 H                     0.154325
     39 H                     0.150484
     40 H                     0.132790
     41 H                     0.159257
     42 H                     0.143207
     43 H                     0.152612
     44 H                     0.153002
     45 H                     0.139807
     46 H                     0.137420
     47 H                     0.158953
  ----------------------------------------
  Sum of atomic charges =     0.000000

 -----------------------------------------------------------------
                    Cartesian Multipole Moments
 -----------------------------------------------------------------
    Charge (ESU x 10^10)
                 0.0000
    Dipole Moment (Debye)
         X      -3.1832      Y       0.3290      Z      -0.6801
       Tot       3.2716
    Quadrupole Moments (Debye-Ang)
        XX    -200.1087     XY      -1.5717     YY    -156.5633
        XZ      -5.5210     YZ      -7.0905     ZZ    -164.6454
    Octopole Moments (Debye-Ang^2)
       XXX     -10.7087    XXY      14.1024    XYY       2.8625
       YYY      -2.4422    XXZ       0.2488    XYZ     -23.0073
       YYZ       9.2991    XZZ      -0.1101    YZZ       3.2795
       ZZZ     -27.7047
    Hexadecapole Moments (Debye-Ang^3)
      XXXX  -13364.2467   XXXY      56.5051   XXYY   -2569.1073
      XYYY      -5.4250   YYYY   -3396.8014   XXXZ      32.0340
      XXYZ     -22.7697   XYYZ     -26.3299   YYYZ     -49.4200
      XXZZ   -2326.2209   XYZZ      29.1010   YYZZ    -850.6845
      XZZZ      52.8774   YZZZ      30.1848   ZZZZ   -1544.8330
 -----------------------------------------------------------------
Archival summary:
1\1\nia1977.scinet.local\SP\ProcedureUnspecified\6-31G*\5212316\rhickman\MonFeb714:51:202022MonFeb714:51:202022\0\\#,ProcedureUnspecified,6-31G*,\\0,1\N\C,1,1.39156\C,2,1.39636,1,120.054\H,3,1.07922,2,120.294,1,-1.44162,0\C,3,1.38322,2,119.727,1,178.313,0\C,5,1.38935,3,121.306,2,0.837081,0\H,6,1.07829,5,120.115,3,-179.866,0\C,6,1.38481,5,118.782,3,-0.181344,0\H,8,1.07916,6,119.709,5,-179.516,0\C,8,1.3808,6,120.674,5,-0.355307,0\H,10,1.07931,8,120.158,6,-178.483,0\C,1,1.39715,2,121.129,3,148.163,0\C,12,1.39549,1,120.249,2,143.974,0\H,13,1.07949,12,119.243,1,-1.26853,0\C,13,1.37781,12,120.754,1,179.263,0\H,15,1.07727,13,118.805,12,179.586,0\C,12,1.39565,1,120.961,2,-36.8758,0\H,17,1.07984,12,119.661,1,-0.100036,0\C,17,1.37715,12,120.25,1,-179.453,0\H,19,1.07999,17,119.268,12,179.628,0\C,15,1.39761,13,120.816,12,0.109612,0\C,1,1.40328,2,119.787,3,-31.5711,0\C,22,1.39395,1,119.645,2,135.796,0\H,23,1.07999,22,118.994,1,2.30936,0\C,23,1.3813,22,120.656,1,-177.029,0\H,25,1.07946,23,119.526,22,-179.983,0\C,25,1.38651,23,120.336,22,1.3403,0\H,27,1.07858,25,120.32,23,178.585,0\C,27,1.38197,25,119.564,23,-1.43292,0\H,29,1.07927,27,120.934,25,-179.656,0\C,29,1.39066,27,120.692,25,-0.576244,0\C,21,1.45152,15,123.718,13,179.962,0\H,32,1.08057,21,116.483,15,-179.558,0\C,32,1.32565,21,128.535,15,0.554534,0\F,34,1.32826,32,128.056,21,-0.0574537,0\F,34,1.33201,32,123.071,21,179.937,0\C,31,1.4882,29,117.411,27,-176.511,0\O,37,1.20325,31,124.669,29,-42.0476,0\O,37,1.34279,31,111.81,29,134.921,0\C,39,1.41954,37,115.802,31,-178.517,0\H,40,1.0867,39,106.206,37,176.55,0\H,40,1.09173,39,110.278,37,56.5691,0\H,40,1.09209,39,110.188,37,-63.5959,0\C,5,1.5017,3,120.162,2,178.884,0\F,44,1.33779,5,113.713,3,12.8911,0\F,44,1.34223,5,112.509,3,134.538,0\F,44,1.35179,5,111.488,3,-106.888,0\\\@

 Total job time:  215.33s(wall), 213.57s(cpu) 
 Mon Feb  7 14:51:20 2022

        *************************************************************
        *                                                           *
        *  Thank you very much for using Q-Chem.  Have a nice day.  *
        *                                                           *
        *************************************************************


