21
 energy: -38.957734623811 gnorm: 0.000080018079 xtb: 6.4.1 (23d549d)
C         3.73856338820000    1.21045553350000   -0.00921864330000
C         2.48407714260000    1.64600023040000   -0.01027449270000
C         1.26612988690000    0.84623763720000   -0.00532334920000
C         0.04256465010000    1.51103326610000    0.00440420960000
C        -1.20447347130000    0.88707218750000    0.01037689370000
C        -2.40308494480000    1.71617773180000    0.02063791660000
C        -3.67017978030000    1.31803775360000    0.01484238300000
C        -1.19659342280000   -0.50990480540000    0.00635127980000
F        -2.32886589590000   -1.23337490360000    0.01271586700000
C         0.00432663990000   -1.19527446160000   -0.00368732770000
F         0.00917218520000   -2.55547460480000   -0.00796890660000
C         1.24475179350000   -0.56006895310000   -0.00979803590000
O         2.37227315510000   -1.30320351540000   -0.02007824490000
H         4.56059359420000    1.90642091780000   -0.01257153920000
H         3.99052834450000    0.16682992850000   -0.00472925870000
H         2.29987854230000    2.71345596180000   -0.01421119220000
H         0.06001577320000    2.59123039290000    0.00756610360000
H        -2.18938001990000    2.77794613970000    0.03324419760000
H        -3.96846656230000    0.28594462860000    0.00150346380000
H        -4.46921067990000    2.03989578090000    0.02335344030000
H         2.13609497320000   -2.24281913760000   -0.02311861160000
