
Running Job 1 of 1 fragments/C073/conf-1/spe_input.inp
qchem fragments/C073/conf-1/spe_input.inp_54346.0 /gpfs/fs0/scratch/a/aspuru/rhickman/descriptor_computation/qchem54346/ 0
/scinet/niagara/software/commercial/qc52/exe/qcprog.exe_s fragments/C073/conf-1/spe_input.inp_54346.0 /gpfs/fs0/scratch/a/aspuru/rhickman/descriptor_computation/qchem54346/
                  Welcome to Q-Chem
     A Quantum Leap Into The Future Of Chemistry


 Q-Chem 5.2, Q-Chem, Inc., Pleasanton, CA (2019)

 License issued to: SRG Alan Aspuru-Guzik, University of Toronto

 Yihan Shao,  Zhengting Gan,  E. Epifanovsky,  A. T. B. Gilbert,  M. Wormit,  
 J. Kussmann,  A. W. Lange,  A. Behn,  Jia Deng,  Xintian Feng,  D. Ghosh,  
 M. Goldey,  P. R. Horn,  L. D. Jacobson,  I. Kaliman,  T. Kus,  A. Landau,  
 Jie Liu,  E. I. Proynov,  R. M. Richard,  R. P. Steele,  E. J. Sundstrom,  
 H. L. Woodcock III,  P. M. Zimmerman,  D. Zuev,  B. Albrecht,  E. Alguire,  
 S. A. Baeppler,  D. Barton,  Z. Benda,  Y. A. Bernard,  E. J. Berquist,  
 K. B. Bravaya,  H. Burton,  D. Casanova,  Chun-Min Chang,  Yunqing Chen,  
 A. Chien,  K. D. Closser,  M. P. Coons,  S. Coriani,  S. Dasgupta,  
 A. L. Dempwolff,  M. Diedenhofen,  Hainam Do,  R. G. Edgar,  Po-Tung Fang,  
 S. Faraji,  S. Fatehi,  Qingguo Feng,  K. D. Fenk,  J. Fosso-Tande,  
 J. Gayvert,  Qinghui Ge,  A. Ghysels,  G. Gidofalvi,  J. Gomes,  
 J. Gonthier,  A. Gunina,  D. Hait,  M. W. D. Hanson-Heine,  
 P. H. P. Harbach,  A. W. Hauser,  M. F. Herbst,  J. E. Herr,  
 E. G. Hohenstein,  Z. C. Holden,  Kerwin Hui,  B. C. Huynh,  T.-C. Jagau,  
 Hyunjun Ji,  B. Kaduk,  K. Khistyaev,  Jaehoon Kim,  P. Klunzinger,  K. Koh,  
 D. Kosenkov,  L. Koulias,  T. Kowalczyk,  C. M. Krauter,  A. Kunitsa,  
 Ka Un Lao,  A. Laurent,  K. V. Lawler,  Joonho Lee,  D. Lefrancois,  
 S. Lehtola,  D. S. Levine,  Yi-Pei Li,  You-Sheng Lin,  Fenglai Liu,  
 E. Livshits,  A. Luenser,  P. Manohar,  E. Mansoor,  S. F. Manzer,  
 Shan-Ping Mao,  Yuezhi Mao,  N. Mardirossian,  A. V. Marenich,  
 T. Markovich,  L. A. Martinez-Martinez,  S. A. Maurer,  N. J. Mayhall,  
 S. C. McKenzie,  J.-M. Mewes,  P. Morgante,  A. F. Morrison,  
 J. W. Mullinax,  K. Nanda,  T. S. Nguyen-Beck,  R. Olivares-Amaya,  
 J. A. Parkhill,  Zheng Pei,  T. M. Perrine,  F. Plasser,  P. Pokhilko,  
 S. Prager,  A. Prociuk,  E. Ramos,  D. R. Rehn,  F. Rob,  M. Scheurer,  
 M. Schneider,  N. Sergueev,  S. M. Sharada,  S. Sharma,  D. W. Small,  
 T. Stauch,  T. Stein,  Yu-Chuan Su,  A. J. W. Thom,  A. Tkatchenko,  
 T. Tsuchimochi,  N. M. Tubman,  L. Vogt,  M. L. Vidal,  O. Vydrov,  
 M. A. Watson,  J. Wenzel,  M. de Wergifosse,  T. A. Wesolowski,  A. White,  
 J. Witte,  A. Yamada,  Jun Yang,  K. Yao,  S. Yeganeh,  S. R. Yost,  
 Zhi-Qiang You,  A. Zech,  Igor Ying Zhang,  Xing Zhang,  Yan Zhao,  
 Ying Zhu,  B. R. Brooks,  G. K. L. Chan,  C. J. Cramer,  M. S. Gordon,  
 W. J. Hehre,  A. Klamt,  M. W. Schmidt,  C. D. Sherrill,  D. G. Truhlar,  
 A. Aspuru-Guzik,  R. Baer,  A. T. Bell,  N. A. Besley,  Jeng-Da Chai,  
 A. E. DePrince, III,  R. A. DiStasio Jr.,  A. Dreuw,  B. D. Dunietz,  
 T. R. Furlani,  Chao-Ping Hsu,  Yousung Jung,  Jing Kong,  D. S. Lambrecht,  
 WanZhen Liang,  C. Ochsenfeld,  V. A. Rassolov,  L. V. Slipchenko,  
 J. E. Subotnik,  T. Van Voorhis,  J. M. Herbert,  A. I. Krylov,  
 P. M. W. Gill,  M. Head-Gordon

 Contributors to earlier versions of Q-Chem not listed above: 
 R. D. Adamson,  B. Austin,  J. Baker,  G. J. O. Beran,  K. Brandhorst,  
 S. T. Brown,  E. F. C. Byrd,  A. K. Chakraborty,  C.-L. Cheng,  
 Siu Hung Chien,  D. M. Chipman,  D. L. Crittenden,  H. Dachsel,  
 R. J. Doerksen,  A. D. Dutoi,  L. Fusti-Molnar,  W. A. Goddard III,  
 A. Golubeva-Zadorozhnaya,  S. R. Gwaltney,  G. Hawkins,  A. Heyden,  
 S. Hirata,  G. Kedziora,  F. J. Keil,  C. Kelley,  Jihan Kim,  R. A. King,  
 R. Z. Khaliullin,  P. P. Korambath,  W. Kurlancheek,  A. M. Lee,  M. S. Lee,  
 S. V. Levchenko,  Ching Yeh Lin,  D. Liotard,  R. C. Lochan,  I. Lotan,  
 P. E. Maslen,  N. Nair,  D. P. O'Neill,  D. Neuhauser,  E. Neuscamman,  
 C. M. Oana,  R. Olson,  B. Peters,  R. Peverati,  P. A. Pieniazek,  
 Y. M. Rhee,  J. Ritchie,  M. A. Rohrdanz,  E. Rosta,  N. J. Russ,  
 H. F. Schaefer III,  N. E. Schultz,  N. Shenvi,  A. C. Simmonett,  A. Sodt,  
 D. Stuck,  K. S. Thanthiriwatte,  V. Vanovschi,  Tao Wang,  A. Warshel,  
 C. F. Williams,  Q. Wu,  X. Xu,  W. Zhang

 Please cite Q-Chem as follows:
 Y. Shao et al., Mol. Phys. 113, 184-215 (2015)
 DOI: 10.1080/00268976.2014.952696

 Q-Chem 5.2.1 for Intel X86 EM64T Linux

 Parts of Q-Chem use Armadillo 8.300.2 (Tropical Shenanigans).
 http://arma.sourceforge.net/

 Q-Chem begins on Mon Feb  7 13:59:01 2022  

Host: 
0

     Scratch files written to /gpfs/fs0/scratch/a/aspuru/rhickman/descriptor_computation/qchem54346//
 Jul1719 |scratch|qcdevops|jenkins|workspace|build_RNUM -1
Processing $rem in /scinet/niagara/software/commercial/qc52/config/preferences:
	 MEM_TOTAL  4000 
NAlpha2: 110
NElect   110
Mult     1

Checking the input file for inconsistencies... 	...done.

--------------------------------------------------------------
User input:
--------------------------------------------------------------
$molecule
0 1
C        -2.26681684110000   -3.49564870960000   -0.42785564970000
C        -2.56389026920000   -2.21699097260000   -0.22700845790000
C        -1.62373633410000   -1.11369908690000   -0.09071030550000
C        -2.11176031990000    0.18079013420000    0.09637513070000
C        -1.28435050350000    1.28138786220000    0.23683322440000
C        -1.85427050920000    2.60860658440000    0.47844433220000
C        -2.98852807950000    3.05032374920000   -0.04712679540000
C         0.11757127090000    1.10879884730000    0.17796801820000
N         0.95610262420000    2.17561084600000    0.31836008760000
C         0.60791500240000   -0.19715572210000    0.00439420990000
C         2.08741071920000   -0.42000208520000   -0.05252570860000
F         2.67951751250000    0.26112708920000   -1.06628297290000
F         2.72993132480000   -0.00838357260000    1.06309892680000
F         2.43290899690000   -1.69965706470000   -0.22537610670000
C        -0.24343252010000   -1.28235317150000   -0.12635118160000
H        -3.03925843520000   -4.23981015860000   -0.51662936880000
H        -1.25610530290000   -3.85539978060000   -0.51245052140000
H        -3.60490300220000   -1.92667584410000   -0.15400297840000
H        -3.17957858970000    0.33190065570000    0.15815727210000
H        -1.29788025140000    3.24594451090000    1.15508244910000
H        -3.56481572470000    2.45955976480000   -0.73904164670000
H        -3.37606897940000    4.02750465790000    0.18435030100000
H         0.57186249610000    3.09444614540000    0.19026382510000
H         1.93284890580000    2.07599704070000    0.10790498790000
H         0.18122667340000   -2.26408696230000   -0.25699143540000
$end

$rem
BASIS = 6-31G*
GUI = 2
METHOD = B3LYP
PRINT_ORBITALS false
MOLDEN_FORMAT false
--------------------------------------------------------------
 ----------------------------------------------------------------
             Standard Nuclear Orientation (Angstroms)
    I     Atom           X                Y                Z
 ----------------------------------------------------------------
    1      C      -1.3843456954    -3.9083716405    -0.0318317537
    2      C      -1.9397512034    -2.7040770362     0.0371396330
    3      C      -1.2476712972    -1.4231948008     0.0463968279
    4      C      -1.9930526931    -0.2441415536     0.1021707442
    5      C      -1.4107989022     1.0114093296     0.1171153724
    6      C      -2.2436242595     2.2112190460     0.2245995370
    7      C      -3.4387844246     2.3530174920    -0.3316060724
    8      C      -0.0027682015     1.1251071723     0.0609096029
    9      N       0.5973075996     2.3500589483     0.0792066981
   10      C       0.7470945876    -0.0632083249     0.0197482619
   11      C       2.2413408243     0.0177163256    -0.0301249755
   12      F       2.6916684179     0.6956670340    -1.1163197523
   13      F       2.7738045886     0.6672298328     1.0288818231
   14      F       2.8440449710    -1.1746689987    -0.0716958359
   15      C       0.1381495024    -1.3076689978     0.0131163338
   16      H      -1.9865416203    -4.8003810155    -0.0333792141
   17      H      -0.3204635575    -4.0598085574    -0.0895950269
   18      H      -3.0189068304    -2.6276422652     0.0910009609
   19      H      -3.0697387663    -0.3098417161     0.1597716853
   20      H      -1.8371518390     3.0166195785     0.8243653633
   21      H      -3.8741306625     1.5872479393    -0.9512239724
   22      H      -4.0211450205     3.2485994984    -0.1995412026
   23      H       0.0339638959     3.1518106082    -0.1402143202
   24      H       1.5758671777     2.4315692108    -0.1306141465
   25      H       0.7567028028    -2.1894788019    -0.0186141956
 ----------------------------------------------------------------
 Molecular Point Group                 C1    NOp =  1
 Largest Abelian Subgroup              C1    NOp =  1
 Nuclear Repulsion Energy =         997.19585340 hartrees
 There are       55 alpha and       55 beta electrons
 Requested basis set is 6-31G(d)
 There are 80 shells and 245 basis functions

 Total QAlloc Memory Limit   4000 MB
 Mega-Array Size       188 MB
 MEM_STATIC part       192 MB
 A cutoff of  1.0D-08 yielded   2058 shell pairs
 There are     20982 function pairs
 Smallest overlap matrix eigenvalue = 2.71E-04

 Scale SEOQF with 1.000000e-01/1.000000e-01/1.000000e+00

 Standard Electronic Orientation quadrupole field applied
 Nucleus-field energy     =     0.0000000193 hartrees
 Guess from superposition of atomic densities
 Warning:  Energy on first SCF cycle will be non-variational
 SAD guess density has 110.000000 electrons

 -----------------------------------------------------------------------
  General SCF calculation program by
  Eric Jon Sundstrom, Paul Horn, Yuezhi Mao, Dmitri Zuev, Alec White,
  David Stuck, Shaama M.S., Shane Yost, Joonho Lee, David Small,
  Daniel Levine, Susi Lehtola, Hugh Burton, Evgeny Epifanovsky,
  Bang C. Huynh
 -----------------------------------------------------------------------
 Exchange:     0.2000 Hartree-Fock + 0.0800 Slater + 0.7200 B88
 Correlation:  0.1900 VWN1RPA + 0.8100 LYP
 Using SG-1 standard quadrature grid
 A restricted SCF calculation will be
 performed using DIIS
 SCF converges when DIIS error is below 1.0e-05
 ---------------------------------------
  Cycle       Energy         DIIS error
 ---------------------------------------
    1    -782.7461368444      5.07e-02  
    2    -779.1750974805      6.14e-03  
    3    -779.0601575540      7.75e-03  
    4    -779.4218142676      1.37e-03  
    5    -779.4340880198      4.31e-04  
    6    -779.4352699728      2.02e-04  
    7    -779.4355733738      4.33e-05  
    8    -779.4355852972      1.60e-05  
    9    -779.4355872213      4.15e-06  Convergence criterion met
 ---------------------------------------
 SCF time:   CPU 41.26s  wall 41.00s 
 SCF   energy in the final basis set =     -779.4355872213
 Total energy in the final basis set =     -779.4355872213
 
 --------------------------------------------------------------
 
                    Orbital Energies (a.u.)
 --------------------------------------------------------------
 
 Alpha MOs
 -- Occupied --
-24.7257 -24.7198 -24.7178 -14.3570 -10.4288 -10.2479 -10.2056 -10.1996
-10.1986 -10.1985 -10.1939 -10.1907 -10.1885 -10.1879 -10.1745  -1.3049
 -1.2159  -1.2083  -0.9452  -0.8635  -0.8109  -0.7942  -0.7507  -0.7208
 -0.6943  -0.6470  -0.6291  -0.6029  -0.5841  -0.5783  -0.5473  -0.5462
 -0.5387  -0.5207  -0.4805  -0.4667  -0.4617  -0.4573  -0.4496  -0.4355
 -0.4226  -0.4197  -0.4109  -0.4058  -0.3963  -0.3938  -0.3846  -0.3756
 -0.3495  -0.3435  -0.3397  -0.3037  -0.2728  -0.2445  -0.1978
 -- Virtual --
 -0.0359  -0.0209   0.0154   0.0757   0.0855   0.1106   0.1156   0.1263
  0.1346   0.1486   0.1513   0.1612   0.1669   0.1950   0.2080   0.2202
  0.2321   0.2411   0.2470   0.2925   0.2986   0.3200   0.3318   0.3384
  0.3673   0.3950   0.4043   0.4328   0.4558   0.4827   0.4896   0.5070
  0.5188   0.5264   0.5395   0.5541   0.5662   0.5690   0.5726   0.5811
  0.5951   0.6051   0.6188   0.6198   0.6235   0.6344   0.6638   0.6693
  0.6835   0.6940   0.7074   0.7321   0.7439   0.7665   0.7797   0.8136
  0.8233   0.8362   0.8527   0.8561   0.8663   0.8821   0.8863   0.9144
  0.9291   0.9475   0.9564   0.9690   0.9824   0.9938   1.0113   1.0141
  1.0628   1.0696   1.0786   1.0890   1.1122   1.1361   1.1409   1.1464
  1.1774   1.2061   1.2172   1.2248   1.2427   1.2655   1.3042   1.3217
  1.3376   1.3396   1.3406   1.3716   1.3740   1.3882   1.3973   1.4270
  1.4532   1.4648   1.4917   1.5003   1.5138   1.5272   1.5732   1.5842
  1.6142   1.6224   1.6602   1.6759   1.6835   1.7180   1.7408   1.7722
  1.7766   1.8166   1.8281   1.8333   1.8491   1.8607   1.8735   1.9031
  1.9115   1.9529   1.9586   1.9738   1.9868   2.0017   2.0058   2.0117
  2.0201   2.0397   2.0852   2.0997   2.1062   2.1260   2.1446   2.1584
  2.1722   2.1856   2.2002   2.2273   2.2343   2.2543   2.2784   2.3034
  2.3142   2.3280   2.3580   2.3804   2.4126   2.4310   2.4461   2.4773
  2.5088   2.5435   2.5917   2.6030   2.6406   2.6675   2.6866   2.7195
  2.7339   2.7569   2.7609   2.8282   2.8505   2.9271   2.9454   3.0088
  3.0451   3.0485   3.0659   3.1132   3.1788   3.2837   3.4642   3.9217
  4.0962   4.1024   4.1205   4.1380   4.1713   4.2560   4.2628   4.3132
  4.3168   4.4920   4.5307   4.7873   4.9347   5.8492
 --------------------------------------------------------------
 
          Ground-State Mulliken Net Atomic Charges

     Atom                 Charge (a.u.)
  ----------------------------------------
      1 C                    -0.360903
      2 C                    -0.112941
      3 C                     0.185510
      4 C                    -0.274678
      5 C                     0.139562
      6 C                    -0.153718
      7 C                    -0.334188
      8 C                     0.256437
      9 N                    -0.833670
     10 C                    -0.028618
     11 C                     0.782941
     12 F                    -0.279398
     13 F                    -0.273400
     14 F                    -0.262213
     15 C                    -0.252967
     16 H                     0.141806
     17 H                     0.140934
     18 H                     0.124043
     19 H                     0.132913
     20 H                     0.137341
     21 H                     0.148742
     22 H                     0.145658
     23 H                     0.336192
     24 H                     0.345090
     25 H                     0.149526
  ----------------------------------------
  Sum of atomic charges =     0.000000

 -----------------------------------------------------------------
                    Cartesian Multipole Moments
 -----------------------------------------------------------------
    Charge (ESU x 10^10)
                 0.0000
    Dipole Moment (Debye)
         X      -1.6532      Y       1.8542      Z      -0.5158
       Tot       2.5371
    Quadrupole Moments (Debye-Ang)
        XX     -83.4821     XY      -0.2429     YY     -73.5006
        XZ       0.1371     YZ      -0.9128     ZZ     -89.2861
    Octopole Moments (Debye-Ang^2)
       XXX      30.3755    XXY       7.0205    XYY      18.7231
       YYY      30.8119    XXZ      -5.0356    XYZ      -1.5641
       YYZ      -2.7823    XZZ      24.4437    YZZ       4.0183
       ZZZ      -1.8439
    Hexadecapole Moments (Debye-Ang^3)
      XXXX   -2071.1840   XXXY       5.6704   XXYY    -619.7998
      XYYY       6.7404   YYYY   -1714.2816   XXXZ      18.4940
      XXYZ      -7.5491   XYYZ     -11.2526   YYYZ      -0.0219
      XXZZ    -398.3228   XYZZ      -5.9595   YYZZ    -374.2721
      XZZZ      -1.9028   YZZZ       0.0110   ZZZZ    -161.2538
 -----------------------------------------------------------------
Archival summary:
1\1\nia1977.scinet.local\SP\ProcedureUnspecified\6-31G*\311110\rhickman\MonFeb713:59:432022MonFeb713:59:432022\0\\#,ProcedureUnspecified,6-31G*,\\0,1\F\C,1,1.35729\F,2,1.3367,1,105.728\F,2,1.35162,1,104.85,3,111.757,0\C,2,1.49727,1,112.629,3,-124.804,0\C,5,1.38547,2,119.145,1,120.015,0\H,6,1.07759,5,118.873,2,0.563078,0\C,6,1.39103,5,120.821,2,-179.421,0\C,8,1.39602,6,117.565,5,-0.729877,0\H,9,1.08023,8,118.878,6,-178.123,0\C,9,1.38407,8,122.818,6,0.388985,0\C,5,1.40573,2,119.186,1,-59.4622,0\N,12,1.36416,5,121.656,2,-1.11797,0\H,13,1.00412,12,119.919,5,12.911,0\H,13,1.00415,12,117.856,5,163.773,0\C,8,1.45593,6,123.126,5,179.808,0\H,16,1.0832,8,114.279,6,178.583,0\C,16,1.32799,8,126.823,6,-1.57185,0\H,18,1.07616,16,122.947,8,0.0367853,0\H,18,1.07625,16,121.176,8,-179.931,0\C,11,1.46448,9,120.315,8,-177.811,0\H,21,1.08333,11,115.871,9,142.713,0\C,21,1.32585,11,124.713,9,-35.9899,0\H,23,1.07641,21,121.682,11,178.378,0\H,23,1.07697,21,121.985,11,-2.55857,0\\\@

 Total job time:  41.58s(wall), 41.45s(cpu) 
 Mon Feb  7 13:59:43 2022

        *************************************************************
        *                                                           *
        *  Thank you very much for using Q-Chem.  Have a nice day.  *
        *                                                           *
        *************************************************************


