
Running Job 1 of 1 fragments/B030/conf-0/spe_input.inp
qchem fragments/B030/conf-0/spe_input.inp_37760.0 /gpfs/fs0/scratch/a/aspuru/rhickman/descriptor_computation/qchem37760/ 0
/scinet/niagara/software/commercial/qc52/exe/qcprog.exe_s fragments/B030/conf-0/spe_input.inp_37760.0 /gpfs/fs0/scratch/a/aspuru/rhickman/descriptor_computation/qchem37760/
                  Welcome to Q-Chem
     A Quantum Leap Into The Future Of Chemistry


 Q-Chem 5.2, Q-Chem, Inc., Pleasanton, CA (2019)

 License issued to: SRG Alan Aspuru-Guzik, University of Toronto

 Yihan Shao,  Zhengting Gan,  E. Epifanovsky,  A. T. B. Gilbert,  M. Wormit,  
 J. Kussmann,  A. W. Lange,  A. Behn,  Jia Deng,  Xintian Feng,  D. Ghosh,  
 M. Goldey,  P. R. Horn,  L. D. Jacobson,  I. Kaliman,  T. Kus,  A. Landau,  
 Jie Liu,  E. I. Proynov,  R. M. Richard,  R. P. Steele,  E. J. Sundstrom,  
 H. L. Woodcock III,  P. M. Zimmerman,  D. Zuev,  B. Albrecht,  E. Alguire,  
 S. A. Baeppler,  D. Barton,  Z. Benda,  Y. A. Bernard,  E. J. Berquist,  
 K. B. Bravaya,  H. Burton,  D. Casanova,  Chun-Min Chang,  Yunqing Chen,  
 A. Chien,  K. D. Closser,  M. P. Coons,  S. Coriani,  S. Dasgupta,  
 A. L. Dempwolff,  M. Diedenhofen,  Hainam Do,  R. G. Edgar,  Po-Tung Fang,  
 S. Faraji,  S. Fatehi,  Qingguo Feng,  K. D. Fenk,  J. Fosso-Tande,  
 J. Gayvert,  Qinghui Ge,  A. Ghysels,  G. Gidofalvi,  J. Gomes,  
 J. Gonthier,  A. Gunina,  D. Hait,  M. W. D. Hanson-Heine,  
 P. H. P. Harbach,  A. W. Hauser,  M. F. Herbst,  J. E. Herr,  
 E. G. Hohenstein,  Z. C. Holden,  Kerwin Hui,  B. C. Huynh,  T.-C. Jagau,  
 Hyunjun Ji,  B. Kaduk,  K. Khistyaev,  Jaehoon Kim,  P. Klunzinger,  K. Koh,  
 D. Kosenkov,  L. Koulias,  T. Kowalczyk,  C. M. Krauter,  A. Kunitsa,  
 Ka Un Lao,  A. Laurent,  K. V. Lawler,  Joonho Lee,  D. Lefrancois,  
 S. Lehtola,  D. S. Levine,  Yi-Pei Li,  You-Sheng Lin,  Fenglai Liu,  
 E. Livshits,  A. Luenser,  P. Manohar,  E. Mansoor,  S. F. Manzer,  
 Shan-Ping Mao,  Yuezhi Mao,  N. Mardirossian,  A. V. Marenich,  
 T. Markovich,  L. A. Martinez-Martinez,  S. A. Maurer,  N. J. Mayhall,  
 S. C. McKenzie,  J.-M. Mewes,  P. Morgante,  A. F. Morrison,  
 J. W. Mullinax,  K. Nanda,  T. S. Nguyen-Beck,  R. Olivares-Amaya,  
 J. A. Parkhill,  Zheng Pei,  T. M. Perrine,  F. Plasser,  P. Pokhilko,  
 S. Prager,  A. Prociuk,  E. Ramos,  D. R. Rehn,  F. Rob,  M. Scheurer,  
 M. Schneider,  N. Sergueev,  S. M. Sharada,  S. Sharma,  D. W. Small,  
 T. Stauch,  T. Stein,  Yu-Chuan Su,  A. J. W. Thom,  A. Tkatchenko,  
 T. Tsuchimochi,  N. M. Tubman,  L. Vogt,  M. L. Vidal,  O. Vydrov,  
 M. A. Watson,  J. Wenzel,  M. de Wergifosse,  T. A. Wesolowski,  A. White,  
 J. Witte,  A. Yamada,  Jun Yang,  K. Yao,  S. Yeganeh,  S. R. Yost,  
 Zhi-Qiang You,  A. Zech,  Igor Ying Zhang,  Xing Zhang,  Yan Zhao,  
 Ying Zhu,  B. R. Brooks,  G. K. L. Chan,  C. J. Cramer,  M. S. Gordon,  
 W. J. Hehre,  A. Klamt,  M. W. Schmidt,  C. D. Sherrill,  D. G. Truhlar,  
 A. Aspuru-Guzik,  R. Baer,  A. T. Bell,  N. A. Besley,  Jeng-Da Chai,  
 A. E. DePrince, III,  R. A. DiStasio Jr.,  A. Dreuw,  B. D. Dunietz,  
 T. R. Furlani,  Chao-Ping Hsu,  Yousung Jung,  Jing Kong,  D. S. Lambrecht,  
 WanZhen Liang,  C. Ochsenfeld,  V. A. Rassolov,  L. V. Slipchenko,  
 J. E. Subotnik,  T. Van Voorhis,  J. M. Herbert,  A. I. Krylov,  
 P. M. W. Gill,  M. Head-Gordon

 Contributors to earlier versions of Q-Chem not listed above: 
 R. D. Adamson,  B. Austin,  J. Baker,  G. J. O. Beran,  K. Brandhorst,  
 S. T. Brown,  E. F. C. Byrd,  A. K. Chakraborty,  C.-L. Cheng,  
 Siu Hung Chien,  D. M. Chipman,  D. L. Crittenden,  H. Dachsel,  
 R. J. Doerksen,  A. D. Dutoi,  L. Fusti-Molnar,  W. A. Goddard III,  
 A. Golubeva-Zadorozhnaya,  S. R. Gwaltney,  G. Hawkins,  A. Heyden,  
 S. Hirata,  G. Kedziora,  F. J. Keil,  C. Kelley,  Jihan Kim,  R. A. King,  
 R. Z. Khaliullin,  P. P. Korambath,  W. Kurlancheek,  A. M. Lee,  M. S. Lee,  
 S. V. Levchenko,  Ching Yeh Lin,  D. Liotard,  R. C. Lochan,  I. Lotan,  
 P. E. Maslen,  N. Nair,  D. P. O'Neill,  D. Neuhauser,  E. Neuscamman,  
 C. M. Oana,  R. Olson,  B. Peters,  R. Peverati,  P. A. Pieniazek,  
 Y. M. Rhee,  J. Ritchie,  M. A. Rohrdanz,  E. Rosta,  N. J. Russ,  
 H. F. Schaefer III,  N. E. Schultz,  N. Shenvi,  A. C. Simmonett,  A. Sodt,  
 D. Stuck,  K. S. Thanthiriwatte,  V. Vanovschi,  Tao Wang,  A. Warshel,  
 C. F. Williams,  Q. Wu,  X. Xu,  W. Zhang

 Please cite Q-Chem as follows:
 Y. Shao et al., Mol. Phys. 113, 184-215 (2015)
 DOI: 10.1080/00268976.2014.952696

 Q-Chem 5.2.1 for Intel X86 EM64T Linux

 Parts of Q-Chem use Armadillo 8.300.2 (Tropical Shenanigans).
 http://arma.sourceforge.net/

 Q-Chem begins on Mon Feb  7 13:09:09 2022  

Host: 
0

     Scratch files written to /gpfs/fs0/scratch/a/aspuru/rhickman/descriptor_computation/qchem37760//
 Jul1719 |scratch|qcdevops|jenkins|workspace|build_RNUM -1
Processing $rem in /scinet/niagara/software/commercial/qc52/config/preferences:
	 MEM_TOTAL  4000 
NAlpha2: 60
NElect   60
Mult     1

Checking the input file for inconsistencies... 	...done.

--------------------------------------------------------------
User input:
--------------------------------------------------------------
$molecule
0 1
C        -4.20647575500000    0.14823904130000   -0.00330636710000
C        -2.99102017870000   -0.39584664850000    0.00110405370000
C        -1.77610168890000    0.37379752890000    0.00144134070000
C        -0.54940525920000   -0.17356475840000    0.00293246910000
C         0.65930997390000    0.60352547910000    0.00202173270000
C         1.87624232850000    0.07084744940000   -0.00002615740000
F         2.15553849470000   -1.22852615290000   -0.00129739820000
F         3.00743473080000    0.76976865340000   -0.00134405830000
H        -5.09969941080000   -0.45160436420000   -0.00386887070000
H        -4.34532592700000    1.21697448380000   -0.00682370690000
H        -2.87708367030000   -1.47204331960000    0.00438832170000
H        -1.88305309000000    1.45086975510000   -0.00026294180000
H        -0.43448222030000   -1.24892371250000    0.00417320410000
H         0.58868527660000    1.68022512230000    0.00252570140000
$end

$rem
BASIS = 6-31G*
GUI = 2
METHOD = B3LYP
PRINT_ORBITALS false
MOLDEN_FORMAT false
--------------------------------------------------------------
 ----------------------------------------------------------------
             Standard Nuclear Orientation (Angstroms)
    I     Atom           X                Y                Z
 ----------------------------------------------------------------
    1      C       4.0478706889    -0.1384226043    -0.0030670721
    2      C       2.8329073965     0.4067629944     0.0011529498
    3      C       1.6172933685    -0.3617820940     0.0015913411
    4      C       0.3910923572     0.1866896184     0.0028906992
    5      C      -0.8183250792    -0.5893074137     0.0020830748
    6      C      -2.0347750967    -0.0555295678    -0.0001527677
    7      F      -2.3128960038     1.2440957634    -0.0017283083
    8      F      -3.1665990196    -0.7534277964    -0.0013804552
    9      H       4.9416364708     0.4606126523    -0.0037114503
   10      H       4.1857545078    -1.2072839297    -0.0063393349
   11      H       2.7199439918     1.4830629634     0.0041919138
   12      H       1.7232707867    -1.4389509503     0.0001321564
   13      H       0.2771417816     1.2621523093     0.0038862595
   14      H      -0.7486741391    -1.6660703459     0.0028299759
 ----------------------------------------------------------------
 Molecular Point Group                 C1    NOp =  1
 Largest Abelian Subgroup              C1    NOp =  1
 Nuclear Repulsion Energy =         327.45703402 hartrees
 There are       30 alpha and       30 beta electrons
 Requested basis set is 6-31G(d)
 There are 44 shells and 132 basis functions

 Total QAlloc Memory Limit   4000 MB
 Mega-Array Size       188 MB
 MEM_STATIC part       192 MB

                       Distance Matrix (Angstroms)
             C (  1)   C (  2)   C (  3)   C (  4)   C (  5)   C (  6)
   C (  2)  1.331684
   C (  3)  2.440823  1.438186
   C (  4)  3.671207  2.451713  1.343277
   C (  5)  4.887043  3.784661  2.446223  1.436963
   C (  6)  6.083211  4.889586  3.664887  2.437932  1.328410
   F (  7)  6.509279  5.213485  4.245615  2.903391  2.365401  1.329052
   F (  8)  7.240636  6.110657  4.799898  3.679811  2.354005  1.329695
   H (  9)  1.075947  2.109422  3.424561  4.558786  5.854872  6.995480
   H ( 10)  1.077723  2.106039  2.704058  4.042612  5.042101  6.326260
   H ( 11)  2.095867  1.082216  2.149255  2.665358  4.100496  4.997463
   H ( 12)  2.663672  2.153591  1.082371  2.101765  2.679852  4.004593
   H ( 13)  4.022444  2.695113  2.105511  1.081483  2.151268  2.661064
   H ( 14)  5.033943  4.138160  2.701661  2.175267  1.079014  2.061045
             F (  7)   F (  8)   H (  9)   H ( 10)   H ( 11)   H ( 12)
   F (  8)  2.172305
   H (  9)  7.296718  8.198621
   H ( 10)  6.945628  7.366350  1.831186
   H ( 11)  5.038514  6.297087  2.445687  3.063769
   H ( 12)  4.846585  4.937689  3.737143  2.473366  3.087319
   H ( 13)  2.590107  3.990231  4.732867  4.623362  2.452771  3.063864
   H ( 14)  3.303919  2.584433  6.074739  4.955719  4.684907  2.482358
             H ( 13)
   H ( 14)  3.102706
 
 A cutoff of  1.0D-08 yielded    726 shell pairs
 There are      6743 function pairs
 Smallest overlap matrix eigenvalue = 1.66E-03

 Scale SEOQF with 1.000000e-01/1.000000e-01/1.000000e+00

 Standard Electronic Orientation quadrupole field applied
 Nucleus-field energy     =     0.0000000161 hartrees
 Guess from superposition of atomic densities
 Warning:  Energy on first SCF cycle will be non-variational
 SAD guess density has 60.000000 electrons

 -----------------------------------------------------------------------
  General SCF calculation program by
  Eric Jon Sundstrom, Paul Horn, Yuezhi Mao, Dmitri Zuev, Alec White,
  David Stuck, Shaama M.S., Shane Yost, Joonho Lee, David Small,
  Daniel Levine, Susi Lehtola, Hugh Burton, Evgeny Epifanovsky,
  Bang C. Huynh
 -----------------------------------------------------------------------
 Exchange:     0.2000 Hartree-Fock + 0.0800 Slater + 0.7200 B88
 Correlation:  0.1900 VWN1RPA + 0.8100 LYP
 Using SG-1 standard quadrature grid
 A restricted SCF calculation will be
 performed using DIIS
 SCF converges when DIIS error is below 1.0e-05
 ---------------------------------------
  Cycle       Energy         DIIS error
 ---------------------------------------
    1    -433.3733728246      6.68e-02  
    2    -431.6820664075      8.93e-03  
    3    -431.3955972902      1.40e-02  
    4    -431.8527058473      2.35e-03  
    5    -431.8653805791      8.06e-04  
    6    -431.8664066040      4.70e-04  
    7    -431.8668756083      8.05e-05  
    8    -431.8668895211      3.56e-05  
    9    -431.8668923215      9.76e-06  Convergence criterion met
 ---------------------------------------
 SCF time:   CPU 8.35s  wall 8.00s 
 SCF   energy in the final basis set =     -431.8668923215
 Total energy in the final basis set =     -431.8668923215
 
 --------------------------------------------------------------
 
                    Orbital Energies (a.u.)
 --------------------------------------------------------------
 
 Alpha MOs
 -- Occupied --
-24.7415 -24.7375 -10.3572 -10.2038 -10.2000 -10.1919 -10.1911 -10.1809
 -1.2847  -1.2254  -0.8326  -0.7922  -0.7295  -0.6458  -0.6014  -0.5776
 -0.5574  -0.5231  -0.5188  -0.4764  -0.4521  -0.4413  -0.4314  -0.4191
 -0.3962  -0.3857  -0.3540  -0.3442  -0.2882  -0.2083
 -- Virtual --
 -0.0413   0.0522   0.0945   0.1010   0.1194   0.1289   0.1517   0.1629
  0.1750   0.1996   0.2100   0.3068   0.3375   0.3791   0.3933   0.4068
  0.4901   0.5023   0.5356   0.5405   0.5465   0.5764   0.5883   0.5914
  0.6033   0.6224   0.6315   0.6877   0.6904   0.7084   0.8169   0.8272
  0.8609   0.8672   0.8819   0.8894   0.9293   0.9486   0.9586   1.0391
  1.0687   1.0935   1.1136   1.1596   1.1681   1.2291   1.2339   1.2558
  1.3198   1.3211   1.3354   1.3650   1.3981   1.4324   1.4425   1.4887
  1.5023   1.6163   1.6436   1.7083   1.7317   1.7847   1.7855   1.8343
  1.8497   1.8758   1.9033   1.9447   1.9669   1.9884   1.9971   2.0090
  2.0536   2.0692   2.1285   2.1706   2.2279   2.2349   2.3051   2.3475
  2.4167   2.4296   2.4788   2.5520   2.5628   2.6233   2.6917   2.8328
  2.8640   2.9413   3.0153   3.0386   3.1611   3.2252   4.0768   4.1008
  4.1318   4.1934   4.3481   4.4930   4.7554   5.2247
 --------------------------------------------------------------
 
          Ground-State Mulliken Net Atomic Charges

     Atom                 Charge (a.u.)
  ----------------------------------------
      1 C                    -0.360067
      2 C                    -0.053999
      3 C                    -0.121096
      4 C                    -0.117782
      5 C                    -0.233156
      6 C                     0.535676
      7 F                    -0.237282
      8 F                    -0.244394
      9 H                     0.144173
     10 H                     0.140400
     11 H                     0.126614
     12 H                     0.122747
     13 H                     0.138816
     14 H                     0.159350
  ----------------------------------------
  Sum of atomic charges =     0.000000

 -----------------------------------------------------------------
                    Cartesian Multipole Moments
 -----------------------------------------------------------------
    Charge (ESU x 10^10)
                 0.0000
    Dipole Moment (Debye)
         X       0.7918      Y      -0.3823      Z       0.0009
       Tot       0.8793
    Quadrupole Moments (Debye-Ang)
        XX     -46.1648     XY       0.3169     YY     -41.9881
        XZ      -0.0107     YZ       0.0091     ZZ     -47.4595
    Octopole Moments (Debye-Ang^2)
       XXX     -20.8221    XXY       2.3595    XYY      -7.9472
       YYY       1.4022    XXZ      -0.0473    XYZ       0.0260
       YYZ      -0.0008    XZZ     -21.8575    YZZ       1.9594
       ZZZ      -0.0353
    Hexadecapole Moments (Debye-Ang^3)
      XXXX   -1649.3953   XXXY      -3.2466   XXYY    -298.5486
      XYYY      -2.3541   YYYY    -154.1081   XXXZ      -0.2246
      XXYZ       0.0879   XYYZ       0.0089   YYYZ       0.0066
      XXZZ    -308.3663   XYZZ      -2.0517   YYZZ     -35.7748
      XZZZ       0.0947   YZZZ      -0.0033   ZZZZ     -44.1912
 -----------------------------------------------------------------
Archival summary:
1\1\nia1977.scinet.local\SP\ProcedureUnspecified\6-31G*\266\rhickman\MonFeb713:09:182022MonFeb713:09:182022\0\\#,ProcedureUnspecified,6-31G*,\\0,1\F\C,1,1.32905\C,2,1.32841,1,125.771\H,3,1.07901,2,117.393,1,-179.98,0\F,2,1.3297,1,109.579,3,-179.99,0\C,3,1.43696,2,123.623,1,-0.0112168,0\H,6,1.08148,3,116.637,2,0.13725,0\C,6,1.34328,3,123.216,2,-179.818,0\H,8,1.08237,6,119.718,3,-0.0174757,0\C,8,1.43819,6,123.599,3,179.941,0\H,10,1.08222,8,116.31,6,0.133186,0\C,10,1.33168,8,123.531,6,-179.849,0\H,12,1.07595,10,122.001,8,179.974,0\H,12,1.07772,10,121.518,8,-0.00663606,0\\\@

 Total job time:  8.49s(wall), 8.44s(cpu) 
 Mon Feb  7 13:09:18 2022

        *************************************************************
        *                                                           *
        *  Thank you very much for using Q-Chem.  Have a nice day.  *
        *                                                           *
        *************************************************************


