23
 energy: -38.821980584364 gnorm: 0.000196538157 xtb: 6.4.1 (23d549d)
C        -3.86668815480000   -0.30868060540000   -0.48811700980000
C        -2.89198404640000   -1.03039634990000    0.05623305760000
C        -1.48982412740000   -0.69067622620000    0.09596802310000
N        -0.57839678890000   -1.71949341660000    0.22668577180000
C         0.67639259100000   -1.23805171620000    0.14007189090000
N         1.81435873120000   -1.97008748490000    0.21619216490000
C         2.89375931980000   -1.27738983050000    0.10363151380000
N         2.93558504110000    0.06496686730000   -0.07762446150000
C         1.80714175120000    0.90874087670000   -0.16866326370000
O         1.96460788630000    2.09844128900000   -0.34123133370000
C         0.59581289720000    0.14856973560000   -0.04146153940000
C        -0.78450473790000    0.50046558550000   -0.05267022320000
C        -1.22474112620000    1.88078332850000   -0.12278649430000
C        -2.28692661140000    2.38901308280000    0.48846785970000
H        -4.88351219590000   -0.66057557620000   -0.49322121500000
H        -3.67814902830000    0.64448188910000   -0.94885968560000
H        -3.12369599220000   -2.00281543640000    0.47780441280000
H        -0.81556787060000   -2.69268720170000    0.33069998600000
H         3.83977741570000   -1.79743616710000    0.15517194170000
H         3.82809469900000    0.53613188480000   -0.15956228540000
H        -0.54201683070000    2.53009482250000   -0.65500580090000
H        -2.95327468300000    1.78247389780000    1.07870990120000
H        -2.51709695180000    3.43872171230000    0.42787278380000
