
Running Job 1 of 1 fragments/C148/conf-1/spe_input.inp
qchem fragments/C148/conf-1/spe_input.inp_85480.0 /gpfs/fs0/scratch/a/aspuru/rhickman/descriptor_computation/qchem85480/ 0
/scinet/niagara/software/commercial/qc52/exe/qcprog.exe_s fragments/C148/conf-1/spe_input.inp_85480.0 /gpfs/fs0/scratch/a/aspuru/rhickman/descriptor_computation/qchem85480/
                  Welcome to Q-Chem
     A Quantum Leap Into The Future Of Chemistry


 Q-Chem 5.2, Q-Chem, Inc., Pleasanton, CA (2019)

 License issued to: SRG Alan Aspuru-Guzik, University of Toronto

 Yihan Shao,  Zhengting Gan,  E. Epifanovsky,  A. T. B. Gilbert,  M. Wormit,  
 J. Kussmann,  A. W. Lange,  A. Behn,  Jia Deng,  Xintian Feng,  D. Ghosh,  
 M. Goldey,  P. R. Horn,  L. D. Jacobson,  I. Kaliman,  T. Kus,  A. Landau,  
 Jie Liu,  E. I. Proynov,  R. M. Richard,  R. P. Steele,  E. J. Sundstrom,  
 H. L. Woodcock III,  P. M. Zimmerman,  D. Zuev,  B. Albrecht,  E. Alguire,  
 S. A. Baeppler,  D. Barton,  Z. Benda,  Y. A. Bernard,  E. J. Berquist,  
 K. B. Bravaya,  H. Burton,  D. Casanova,  Chun-Min Chang,  Yunqing Chen,  
 A. Chien,  K. D. Closser,  M. P. Coons,  S. Coriani,  S. Dasgupta,  
 A. L. Dempwolff,  M. Diedenhofen,  Hainam Do,  R. G. Edgar,  Po-Tung Fang,  
 S. Faraji,  S. Fatehi,  Qingguo Feng,  K. D. Fenk,  J. Fosso-Tande,  
 J. Gayvert,  Qinghui Ge,  A. Ghysels,  G. Gidofalvi,  J. Gomes,  
 J. Gonthier,  A. Gunina,  D. Hait,  M. W. D. Hanson-Heine,  
 P. H. P. Harbach,  A. W. Hauser,  M. F. Herbst,  J. E. Herr,  
 E. G. Hohenstein,  Z. C. Holden,  Kerwin Hui,  B. C. Huynh,  T.-C. Jagau,  
 Hyunjun Ji,  B. Kaduk,  K. Khistyaev,  Jaehoon Kim,  P. Klunzinger,  K. Koh,  
 D. Kosenkov,  L. Koulias,  T. Kowalczyk,  C. M. Krauter,  A. Kunitsa,  
 Ka Un Lao,  A. Laurent,  K. V. Lawler,  Joonho Lee,  D. Lefrancois,  
 S. Lehtola,  D. S. Levine,  Yi-Pei Li,  You-Sheng Lin,  Fenglai Liu,  
 E. Livshits,  A. Luenser,  P. Manohar,  E. Mansoor,  S. F. Manzer,  
 Shan-Ping Mao,  Yuezhi Mao,  N. Mardirossian,  A. V. Marenich,  
 T. Markovich,  L. A. Martinez-Martinez,  S. A. Maurer,  N. J. Mayhall,  
 S. C. McKenzie,  J.-M. Mewes,  P. Morgante,  A. F. Morrison,  
 J. W. Mullinax,  K. Nanda,  T. S. Nguyen-Beck,  R. Olivares-Amaya,  
 J. A. Parkhill,  Zheng Pei,  T. M. Perrine,  F. Plasser,  P. Pokhilko,  
 S. Prager,  A. Prociuk,  E. Ramos,  D. R. Rehn,  F. Rob,  M. Scheurer,  
 M. Schneider,  N. Sergueev,  S. M. Sharada,  S. Sharma,  D. W. Small,  
 T. Stauch,  T. Stein,  Yu-Chuan Su,  A. J. W. Thom,  A. Tkatchenko,  
 T. Tsuchimochi,  N. M. Tubman,  L. Vogt,  M. L. Vidal,  O. Vydrov,  
 M. A. Watson,  J. Wenzel,  M. de Wergifosse,  T. A. Wesolowski,  A. White,  
 J. Witte,  A. Yamada,  Jun Yang,  K. Yao,  S. Yeganeh,  S. R. Yost,  
 Zhi-Qiang You,  A. Zech,  Igor Ying Zhang,  Xing Zhang,  Yan Zhao,  
 Ying Zhu,  B. R. Brooks,  G. K. L. Chan,  C. J. Cramer,  M. S. Gordon,  
 W. J. Hehre,  A. Klamt,  M. W. Schmidt,  C. D. Sherrill,  D. G. Truhlar,  
 A. Aspuru-Guzik,  R. Baer,  A. T. Bell,  N. A. Besley,  Jeng-Da Chai,  
 A. E. DePrince, III,  R. A. DiStasio Jr.,  A. Dreuw,  B. D. Dunietz,  
 T. R. Furlani,  Chao-Ping Hsu,  Yousung Jung,  Jing Kong,  D. S. Lambrecht,  
 WanZhen Liang,  C. Ochsenfeld,  V. A. Rassolov,  L. V. Slipchenko,  
 J. E. Subotnik,  T. Van Voorhis,  J. M. Herbert,  A. I. Krylov,  
 P. M. W. Gill,  M. Head-Gordon

 Contributors to earlier versions of Q-Chem not listed above: 
 R. D. Adamson,  B. Austin,  J. Baker,  G. J. O. Beran,  K. Brandhorst,  
 S. T. Brown,  E. F. C. Byrd,  A. K. Chakraborty,  C.-L. Cheng,  
 Siu Hung Chien,  D. M. Chipman,  D. L. Crittenden,  H. Dachsel,  
 R. J. Doerksen,  A. D. Dutoi,  L. Fusti-Molnar,  W. A. Goddard III,  
 A. Golubeva-Zadorozhnaya,  S. R. Gwaltney,  G. Hawkins,  A. Heyden,  
 S. Hirata,  G. Kedziora,  F. J. Keil,  C. Kelley,  Jihan Kim,  R. A. King,  
 R. Z. Khaliullin,  P. P. Korambath,  W. Kurlancheek,  A. M. Lee,  M. S. Lee,  
 S. V. Levchenko,  Ching Yeh Lin,  D. Liotard,  R. C. Lochan,  I. Lotan,  
 P. E. Maslen,  N. Nair,  D. P. O'Neill,  D. Neuhauser,  E. Neuscamman,  
 C. M. Oana,  R. Olson,  B. Peters,  R. Peverati,  P. A. Pieniazek,  
 Y. M. Rhee,  J. Ritchie,  M. A. Rohrdanz,  E. Rosta,  N. J. Russ,  
 H. F. Schaefer III,  N. E. Schultz,  N. Shenvi,  A. C. Simmonett,  A. Sodt,  
 D. Stuck,  K. S. Thanthiriwatte,  V. Vanovschi,  Tao Wang,  A. Warshel,  
 C. F. Williams,  Q. Wu,  X. Xu,  W. Zhang

 Please cite Q-Chem as follows:
 Y. Shao et al., Mol. Phys. 113, 184-215 (2015)
 DOI: 10.1080/00268976.2014.952696

 Q-Chem 5.2.1 for Intel X86 EM64T Linux

 Parts of Q-Chem use Armadillo 8.300.2 (Tropical Shenanigans).
 http://arma.sourceforge.net/

 Q-Chem begins on Mon Feb  7 14:45:16 2022  

Host: 
0

     Scratch files written to /gpfs/fs0/scratch/a/aspuru/rhickman/descriptor_computation/qchem85480//
 Jul1719 |scratch|qcdevops|jenkins|workspace|build_RNUM -1
Processing $rem in /scinet/niagara/software/commercial/qc52/config/preferences:
	 MEM_TOTAL  4000 
NAlpha2: 98
NElect   98
Mult     1

Checking the input file for inconsistencies... 	...done.

--------------------------------------------------------------
User input:
--------------------------------------------------------------
$molecule
0 1
C        -3.95060996790000   -0.50388565290000    0.33463024900000
C        -2.92244610240000   -1.22784094750000   -0.10038300750000
C        -1.53489315210000   -0.83909782500000   -0.08575980460000
N        -0.56338136080000   -1.81343017790000   -0.06592024920000
C         0.65352837640000   -1.23885500980000   -0.02153889520000
N         1.82224322110000   -1.92291335730000    0.00978342000000
C         2.87034652840000   -1.17684177250000    0.02858228960000
N         2.84146322630000    0.17580696020000    0.02169235760000
C         1.67596569980000    0.97274877520000   -0.00291434250000
O         1.80724614810000    2.17854594350000    0.00524974800000
C         0.49063503410000    0.15702738250000   -0.02559440390000
C        -0.91501436850000    0.40934115740000   -0.07766502150000
C        -1.60979053680000    1.67241813200000   -0.20997805990000
C        -1.14445772130000    2.86274530780000    0.14878684980000
H        -4.95776055510000   -0.87889072610000    0.27606722030000
H        -3.82215733880000    0.46705079270000    0.77809803780000
H        -3.10297634020000   -2.22685030830000   -0.48272344010000
H        -0.73012354220000   -2.80632126860000   -0.05101213590000
H         3.83989109670000   -1.65365635730000    0.05082125070000
H         3.70645194050000    0.70224173740000    0.03616169650000
H        -2.59512635920000    1.58876975610000   -0.65250937220000
H        -0.17077576520000    2.98803376420000    0.58587241210000
H        -1.72768585450000    3.75519137060000   -0.00441243920000
$end

$rem
BASIS = 6-31G*
GUI = 2
METHOD = B3LYP
PRINT_ORBITALS false
MOLDEN_FORMAT false
--------------------------------------------------------------
 ----------------------------------------------------------------
             Standard Nuclear Orientation (Angstroms)
    I     Atom           X                Y                Z
 ----------------------------------------------------------------
    1      C       3.9107170470     0.4637690947     0.3072001832
    2      C       2.8876899345     1.2055129870    -0.1095734503
    3      C       1.4958320992     0.8327583730    -0.0889820135
    4      N       0.5360060870     1.8179527785    -0.0480148057
    5      C      -0.6871691062     1.2570054451    -0.0015801970
    6      N      -1.8474924021     1.9541073191     0.0485209470
    7      C      -2.9040934927     1.2200796437     0.0656748664
    8      N      -2.8911365328    -0.1325922772     0.0401581630
    9      C      -1.7353011195    -0.9426139703    -0.0047370981
   10      O      -1.8806493048    -2.1468027175    -0.0119054868
   11      C      -0.5407002218    -0.1404894250    -0.0259378491
   12      C       0.8614338502    -0.4083859111    -0.0928359050
   13      C       1.5402701253    -1.6775222046    -0.2479438938
   14      C       1.0638729144    -2.8671614840     0.0983648662
   15      H       4.9217001099     0.8278104969     0.2455735442
   16      H       3.7744136103    -0.5115897683     0.7384516184
   17      H       3.0768812285     2.2074980517    -0.4797459243
   18      H       0.7144982198     2.8085417519    -0.0209598788
   19      H      -3.8677700443     1.7077808058     0.1022599707
   20      H      -3.7620991786    -0.6490874322     0.0544842430
   21      H       2.5229688832    -1.5992797594    -0.6972755832
   22      H       0.0922950405    -2.9870981721     0.5415907270
   23      H       1.6353543215    -3.7641442682    -0.0716820060
 ----------------------------------------------------------------
 Molecular Point Group                 C1    NOp =  1
 Largest Abelian Subgroup              C1    NOp =  1
 Nuclear Repulsion Energy =         842.15643716 hartrees
 There are       49 alpha and       49 beta electrons
 Requested basis set is 6-31G(d)
 There are 74 shells and 228 basis functions

 Total QAlloc Memory Limit   4000 MB
 Mega-Array Size       188 MB
 MEM_STATIC part       192 MB
 A cutoff of  1.0D-08 yielded   1901 shell pairs
 There are     20087 function pairs
 Smallest overlap matrix eigenvalue = 4.24E-04

 Scale SEOQF with 1.000000e-01/1.000000e-01/1.000000e+00

 Standard Electronic Orientation quadrupole field applied
 Nucleus-field energy     =     0.0000000299 hartrees
 Guess from superposition of atomic densities
 Warning:  Energy on first SCF cycle will be non-variational
 SAD guess density has 98.000000 electrons

 -----------------------------------------------------------------------
  General SCF calculation program by
  Eric Jon Sundstrom, Paul Horn, Yuezhi Mao, Dmitri Zuev, Alec White,
  David Stuck, Shaama M.S., Shane Yost, Joonho Lee, David Small,
  Daniel Levine, Susi Lehtola, Hugh Burton, Evgeny Epifanovsky,
  Bang C. Huynh
 -----------------------------------------------------------------------
 Exchange:     0.2000 Hartree-Fock + 0.0800 Slater + 0.7200 B88
 Correlation:  0.1900 VWN1RPA + 0.8100 LYP
 Using SG-1 standard quadrature grid
 A restricted SCF calculation will be
 performed using DIIS
 SCF converges when DIIS error is below 1.0e-05
 ---------------------------------------
  Cycle       Energy         DIIS error
 ---------------------------------------
    1    -629.6513022343      5.67e-02  
    2    -625.6901248038      6.35e-03  
    3    -625.2963351442      1.07e-02  
    4    -625.9007751464      2.70e-03  
    5    -625.9419450633      5.15e-04  
    6    -625.9428954529      2.88e-04  
    7    -625.9433428975      8.17e-05  
    8    -625.9433788470      2.38e-05  
    9    -625.9433819145      5.49e-06  Convergence criterion met
 ---------------------------------------
 SCF time:   CPU 37.28s  wall 38.00s 
 SCF   energy in the final basis set =     -625.9433819145
 Total energy in the final basis set =     -625.9433819145
 
 --------------------------------------------------------------
 
                    Orbital Energies (a.u.)
 --------------------------------------------------------------
 
 Alpha MOs
 -- Occupied --
-19.1116 -14.3941 -14.3932 -14.3385 -10.2940 -10.2782 -10.2577 -10.2269
-10.2034 -10.1933 -10.1899 -10.1865 -10.1766 -10.1594  -1.0491  -1.0152
 -0.9816  -0.9035  -0.8187  -0.8014  -0.7580  -0.7280  -0.6755  -0.6611
 -0.6222  -0.5974  -0.5710  -0.5484  -0.5204  -0.5150  -0.4915  -0.4690
 -0.4577  -0.4505  -0.4326  -0.4265  -0.4156  -0.4093  -0.3977  -0.3733
 -0.3665  -0.3445  -0.3111  -0.2960  -0.2877  -0.2741  -0.2567  -0.2345
 -0.1914
 -- Virtual --
 -0.0364  -0.0188   0.0188   0.0419   0.0748   0.0782   0.0984   0.1256
  0.1372   0.1383   0.1624   0.1804   0.1840   0.1963   0.2105   0.2208
  0.2312   0.2642   0.2729   0.3058   0.3085   0.3193   0.3429   0.3486
  0.3613   0.3833   0.4039   0.4407   0.4627   0.4743   0.4915   0.5019
  0.5172   0.5327   0.5378   0.5525   0.5600   0.5752   0.5851   0.6021
  0.6055   0.6160   0.6272   0.6346   0.6476   0.6509   0.6699   0.6866
  0.6979   0.7126   0.7182   0.7230   0.7703   0.7825   0.7895   0.7952
  0.8094   0.8318   0.8452   0.8524   0.8641   0.8686   0.8746   0.8904
  0.8951   0.9035   0.9178   0.9309   0.9428   0.9669   0.9806   0.9988
  1.0187   1.0371   1.0591   1.0827   1.1129   1.1152   1.1392   1.1724
  1.1924   1.2111   1.2210   1.2277   1.2740   1.2844   1.3102   1.3180
  1.3339   1.3624   1.3877   1.3974   1.4205   1.4352   1.4468   1.4726
  1.4832   1.4977   1.5265   1.5514   1.5743   1.5965   1.6239   1.6531
  1.6855   1.7105   1.7452   1.7586   1.7643   1.8116   1.8326   1.8456
  1.8530   1.8737   1.9116   1.9301   1.9575   1.9635   1.9747   2.0145
  2.0441   2.0500   2.0612   2.0991   2.1028   2.1220   2.1579   2.1621
  2.1932   2.2197   2.2470   2.2550   2.2589   2.2708   2.2887   2.3304
  2.3561   2.3689   2.4208   2.4391   2.4497   2.4714   2.5080   2.5163
  2.5446   2.5916   2.5933   2.6505   2.6862   2.6943   2.7154   2.7322
  2.7523   2.7845   2.7941   2.8300   2.8643   2.9062   2.9804   3.0205
  3.0437   3.1993   3.2587   3.3446   3.4731   3.9330   3.9898   4.0900
  4.1284   4.1386   4.1803   4.2154   4.2707   4.3184   4.3245   4.4576
  4.6016   4.6626   4.8644
 --------------------------------------------------------------
 
          Ground-State Mulliken Net Atomic Charges

     Atom                 Charge (a.u.)
  ----------------------------------------
      1 C                    -0.348454
      2 C                    -0.124737
      3 C                     0.284111
      4 N                    -0.719243
      5 C                     0.478243
      6 N                    -0.501098
      7 C                     0.240735
      8 N                    -0.618839
      9 C                     0.562631
     10 O                    -0.514006
     11 C                    -0.017108
     12 C                     0.032618
     13 C                    -0.129780
     14 C                    -0.353428
     15 H                     0.145499
     16 H                     0.163412
     17 H                     0.127140
     18 H                     0.335730
     19 H                     0.165931
     20 H                     0.345083
     21 H                     0.129322
     22 H                     0.185716
     23 H                     0.130523
  ----------------------------------------
  Sum of atomic charges =     0.000000

 -----------------------------------------------------------------
                    Cartesian Multipole Moments
 -----------------------------------------------------------------
    Charge (ESU x 10^10)
                 0.0000
    Dipole Moment (Debye)
         X      -0.3467      Y       3.3459      Z       0.0666
       Tot       3.3644
    Quadrupole Moments (Debye-Ang)
        XX     -61.6191     XY      -0.2144     YY     -81.8184
        XZ      -0.9906     YZ      -1.2499     ZZ     -82.3247
    Octopole Moments (Debye-Ang^2)
       XXX     -63.8593    XXY      10.6199    XYY      28.3134
       YYY      21.4476    XXZ       1.1978    XYZ      -1.0136
       YYZ      -0.3916    XZZ      -9.4504    YZZ      -1.0148
       ZZZ       0.1373
    Hexadecapole Moments (Debye-Ang^3)
      XXXX   -1811.2575   XXXY       4.6922   XXYY    -571.5567
      XYYY      22.0600   YYYY   -1145.1914   XXXZ      -1.9430
      XXYZ      -5.0447   XYYZ      -9.5210   YYYZ      -8.4542
      XXZZ    -407.7939   XYZZ       5.8858   YYZZ    -220.5821
      XZZZ      -1.4627   YZZZ      -1.4370   ZZZZ     -93.6439
 -----------------------------------------------------------------
Archival summary:
1\1\nia1977.scinet.local\SP\ProcedureUnspecified\6-31G*\13109\rhickman\MonFeb714:45:542022MonFeb714:45:542022\0\\#,ProcedureUnspecified,6-31G*,\\0,1\N\H,1,1.00691\C,1,1.34647,2,124.748\N,3,1.35455,1,124.406,2,2.03177,0\C,4,1.28666,3,114.226,1,178.94,0\H,5,1.08068,4,118.378,3,-179.812,0\N,5,1.35297,4,124.211,3,0.154225,0\H,7,1.01269,5,120.093,4,-179.905,0\C,1,1.37606,2,125.556,3,-177.521,0\C,9,1.39388,1,108.67,2,178.917,0\C,3,1.40536,1,108.602,2,-178.466,0\C,7,1.41213,5,125.586,4,0.191805,0\O,12,1.21295,7,118.137,5,179.384,0\C,9,1.44105,1,119.271,2,-0.655861,0\H,14,1.0848,9,114.346,1,-23.0962,0\C,14,1.33059,9,126.437,1,154.93,0\H,16,1.07512,14,122.269,9,-1.73378,0\H,16,1.07629,14,121.045,9,179.601,0\C,10,1.44761,9,124.577,1,174.38,0\H,19,1.08338,10,113.984,9,-20.0527,0\C,19,1.32745,10,126.118,9,160.271,0\H,21,1.07462,19,122.147,10,-0.0115182,0\H,21,1.07707,19,120.98,10,178.877,0\\\@

 Total job time:  37.57s(wall), 37.46s(cpu) 
 Mon Feb  7 14:45:54 2022

        *************************************************************
        *                                                           *
        *  Thank you very much for using Q-Chem.  Have a nice day.  *
        *                                                           *
        *************************************************************


