
Running Job 1 of 1 fragments/B019/conf-1/spe_input.inp
qchem fragments/B019/conf-1/spe_input.inp_158604.0 /gpfs/fs0/scratch/a/aspuru/rhickman/descriptor_computation/qchem158604/ 0
/scinet/niagara/software/commercial/qc52/exe/qcprog.exe_s fragments/B019/conf-1/spe_input.inp_158604.0 /gpfs/fs0/scratch/a/aspuru/rhickman/descriptor_computation/qchem158604/
                  Welcome to Q-Chem
     A Quantum Leap Into The Future Of Chemistry


 Q-Chem 5.2, Q-Chem, Inc., Pleasanton, CA (2019)

 License issued to: SRG Alan Aspuru-Guzik, University of Toronto

 Yihan Shao,  Zhengting Gan,  E. Epifanovsky,  A. T. B. Gilbert,  M. Wormit,  
 J. Kussmann,  A. W. Lange,  A. Behn,  Jia Deng,  Xintian Feng,  D. Ghosh,  
 M. Goldey,  P. R. Horn,  L. D. Jacobson,  I. Kaliman,  T. Kus,  A. Landau,  
 Jie Liu,  E. I. Proynov,  R. M. Richard,  R. P. Steele,  E. J. Sundstrom,  
 H. L. Woodcock III,  P. M. Zimmerman,  D. Zuev,  B. Albrecht,  E. Alguire,  
 S. A. Baeppler,  D. Barton,  Z. Benda,  Y. A. Bernard,  E. J. Berquist,  
 K. B. Bravaya,  H. Burton,  D. Casanova,  Chun-Min Chang,  Yunqing Chen,  
 A. Chien,  K. D. Closser,  M. P. Coons,  S. Coriani,  S. Dasgupta,  
 A. L. Dempwolff,  M. Diedenhofen,  Hainam Do,  R. G. Edgar,  Po-Tung Fang,  
 S. Faraji,  S. Fatehi,  Qingguo Feng,  K. D. Fenk,  J. Fosso-Tande,  
 J. Gayvert,  Qinghui Ge,  A. Ghysels,  G. Gidofalvi,  J. Gomes,  
 J. Gonthier,  A. Gunina,  D. Hait,  M. W. D. Hanson-Heine,  
 P. H. P. Harbach,  A. W. Hauser,  M. F. Herbst,  J. E. Herr,  
 E. G. Hohenstein,  Z. C. Holden,  Kerwin Hui,  B. C. Huynh,  T.-C. Jagau,  
 Hyunjun Ji,  B. Kaduk,  K. Khistyaev,  Jaehoon Kim,  P. Klunzinger,  K. Koh,  
 D. Kosenkov,  L. Koulias,  T. Kowalczyk,  C. M. Krauter,  A. Kunitsa,  
 Ka Un Lao,  A. Laurent,  K. V. Lawler,  Joonho Lee,  D. Lefrancois,  
 S. Lehtola,  D. S. Levine,  Yi-Pei Li,  You-Sheng Lin,  Fenglai Liu,  
 E. Livshits,  A. Luenser,  P. Manohar,  E. Mansoor,  S. F. Manzer,  
 Shan-Ping Mao,  Yuezhi Mao,  N. Mardirossian,  A. V. Marenich,  
 T. Markovich,  L. A. Martinez-Martinez,  S. A. Maurer,  N. J. Mayhall,  
 S. C. McKenzie,  J.-M. Mewes,  P. Morgante,  A. F. Morrison,  
 J. W. Mullinax,  K. Nanda,  T. S. Nguyen-Beck,  R. Olivares-Amaya,  
 J. A. Parkhill,  Zheng Pei,  T. M. Perrine,  F. Plasser,  P. Pokhilko,  
 S. Prager,  A. Prociuk,  E. Ramos,  D. R. Rehn,  F. Rob,  M. Scheurer,  
 M. Schneider,  N. Sergueev,  S. M. Sharada,  S. Sharma,  D. W. Small,  
 T. Stauch,  T. Stein,  Yu-Chuan Su,  A. J. W. Thom,  A. Tkatchenko,  
 T. Tsuchimochi,  N. M. Tubman,  L. Vogt,  M. L. Vidal,  O. Vydrov,  
 M. A. Watson,  J. Wenzel,  M. de Wergifosse,  T. A. Wesolowski,  A. White,  
 J. Witte,  A. Yamada,  Jun Yang,  K. Yao,  S. Yeganeh,  S. R. Yost,  
 Zhi-Qiang You,  A. Zech,  Igor Ying Zhang,  Xing Zhang,  Yan Zhao,  
 Ying Zhu,  B. R. Brooks,  G. K. L. Chan,  C. J. Cramer,  M. S. Gordon,  
 W. J. Hehre,  A. Klamt,  M. W. Schmidt,  C. D. Sherrill,  D. G. Truhlar,  
 A. Aspuru-Guzik,  R. Baer,  A. T. Bell,  N. A. Besley,  Jeng-Da Chai,  
 A. E. DePrince, III,  R. A. DiStasio Jr.,  A. Dreuw,  B. D. Dunietz,  
 T. R. Furlani,  Chao-Ping Hsu,  Yousung Jung,  Jing Kong,  D. S. Lambrecht,  
 WanZhen Liang,  C. Ochsenfeld,  V. A. Rassolov,  L. V. Slipchenko,  
 J. E. Subotnik,  T. Van Voorhis,  J. M. Herbert,  A. I. Krylov,  
 P. M. W. Gill,  M. Head-Gordon

 Contributors to earlier versions of Q-Chem not listed above: 
 R. D. Adamson,  B. Austin,  J. Baker,  G. J. O. Beran,  K. Brandhorst,  
 S. T. Brown,  E. F. C. Byrd,  A. K. Chakraborty,  C.-L. Cheng,  
 Siu Hung Chien,  D. M. Chipman,  D. L. Crittenden,  H. Dachsel,  
 R. J. Doerksen,  A. D. Dutoi,  L. Fusti-Molnar,  W. A. Goddard III,  
 A. Golubeva-Zadorozhnaya,  S. R. Gwaltney,  G. Hawkins,  A. Heyden,  
 S. Hirata,  G. Kedziora,  F. J. Keil,  C. Kelley,  Jihan Kim,  R. A. King,  
 R. Z. Khaliullin,  P. P. Korambath,  W. Kurlancheek,  A. M. Lee,  M. S. Lee,  
 S. V. Levchenko,  Ching Yeh Lin,  D. Liotard,  R. C. Lochan,  I. Lotan,  
 P. E. Maslen,  N. Nair,  D. P. O'Neill,  D. Neuhauser,  E. Neuscamman,  
 C. M. Oana,  R. Olson,  B. Peters,  R. Peverati,  P. A. Pieniazek,  
 Y. M. Rhee,  J. Ritchie,  M. A. Rohrdanz,  E. Rosta,  N. J. Russ,  
 H. F. Schaefer III,  N. E. Schultz,  N. Shenvi,  A. C. Simmonett,  A. Sodt,  
 D. Stuck,  K. S. Thanthiriwatte,  V. Vanovschi,  Tao Wang,  A. Warshel,  
 C. F. Williams,  Q. Wu,  X. Xu,  W. Zhang

 Please cite Q-Chem as follows:
 Y. Shao et al., Mol. Phys. 113, 184-215 (2015)
 DOI: 10.1080/00268976.2014.952696

 Q-Chem 5.2.1 for Intel X86 EM64T Linux

 Parts of Q-Chem use Armadillo 8.300.2 (Tropical Shenanigans).
 http://arma.sourceforge.net/

 Q-Chem begins on Mon Feb  7 18:03:21 2022  

Host: 
0

     Scratch files written to /gpfs/fs0/scratch/a/aspuru/rhickman/descriptor_computation/qchem158604//
 Jul1719 |scratch|qcdevops|jenkins|workspace|build_RNUM -1
Processing $rem in /scinet/niagara/software/commercial/qc52/config/preferences:
	 MEM_TOTAL  4000 
NAlpha2: 86
NElect   86
Mult     1

Checking the input file for inconsistencies... 	...done.

--------------------------------------------------------------
User input:
--------------------------------------------------------------
$molecule
0 1
C         4.74235458240000    0.40132590970000   -0.02152216710000
C         3.75842104490000   -0.49053987420000    0.00604052700000
C         2.33291797210000   -0.20342692080000    0.00605898660000
C         1.40967718370000   -1.25294954100000    0.01488886980000
C         0.05505506420000   -0.98859393030000    0.01286396090000
C        -0.36577413170000    0.34394702950000    0.00206236380000
C        -1.75541844860000    0.77293038560000   -0.00325541220000
C        -2.84518752070000    0.02070855710000   -0.00248795940000
F        -2.91649862300000   -1.30534308930000    0.00406735490000
F        -4.07857044690000    0.51607882450000   -0.00853540930000
N         0.51025560830000    1.35212259310000   -0.00408162700000
C         1.79608313870000    1.09002857220000   -0.00190053920000
H         5.77366911660000    0.09324740270000   -0.01982878900000
H         4.56639066230000    1.46268793280000   -0.04779528520000
H         4.00284654590000   -1.54600669220000    0.02977773200000
H         1.76060562970000   -2.27577093980000    0.02268067860000
H        -0.65622734660000   -1.79754960170000    0.01963907560000
H        -1.90035234660000    1.84267525510000   -0.00956253270000
H         2.43696192320000    1.96096140790000   -0.00589191830000
$end

$rem
BASIS = 6-31G*
GUI = 2
METHOD = B3LYP
PRINT_ORBITALS false
MOLDEN_FORMAT false
--------------------------------------------------------------
 ----------------------------------------------------------------
             Standard Nuclear Orientation (Angstroms)
    I     Atom           X                Y                Z
 ----------------------------------------------------------------
    1      C       4.6155951189    -0.3295904519     0.0173620375
    2      C       3.6184541846     0.5476853875    -0.0028008872
    3      C       2.1973941390     0.2393398563    -0.0048598113
    4      C       1.2585925941     1.2750043199    -0.0050286010
    5      C      -0.0919333279     0.9904541729    -0.0048742392
    6      C      -0.4928282798    -0.3482625708    -0.0047571390
    7      C      -1.8759149085    -0.7979660205    -0.0026333071
    8      C      -2.9767873643    -0.0621099058     0.0028905842
    9      F      -3.0678797163     1.2627395134     0.0070636347
   10      F      -4.2026391627    -0.5758645716     0.0051770554
   11      N       0.3981496516    -1.3432688129    -0.0069308284
   12      C       1.6799223449    -1.0620053525    -0.0072461563
   13      H       5.6421971470    -0.0061513916     0.0179558206
   14      H       4.4554965788    -1.3936379059     0.0350932304
   15      H       3.8470954498     1.6068397191    -0.0180572973
   16      H       1.5942171175     2.3029785981    -0.0046247728
   17      H      -0.8152097550     1.7887329766    -0.0049735851
   18      H      -2.0048681149    -1.8697707808    -0.0049412716
   19      H       2.3337269195    -1.9232806123    -0.0104174194
 ----------------------------------------------------------------
 Molecular Point Group                 C1    NOp =  1
 Largest Abelian Subgroup              C1    NOp =  1
 Nuclear Repulsion Energy =         631.53929892 hartrees
 There are       43 alpha and       43 beta electrons
 Requested basis set is 6-31G(d)
 There are 62 shells and 194 basis functions

 Total QAlloc Memory Limit   4000 MB
 Mega-Array Size       188 MB
 MEM_STATIC part       192 MB
 A cutoff of  1.0D-08 yielded   1314 shell pairs
 There are     13758 function pairs
 Smallest overlap matrix eigenvalue = 6.35E-04

 Scale SEOQF with 1.000000e-02/1.000000e-01/1.000000e+00

 Standard Electronic Orientation quadrupole field applied
 Nucleus-field energy     =     0.0000000081 hartrees
 Guess from superposition of atomic densities
 Warning:  Energy on first SCF cycle will be non-variational
 SAD guess density has 86.000000 electrons

 -----------------------------------------------------------------------
  General SCF calculation program by
  Eric Jon Sundstrom, Paul Horn, Yuezhi Mao, Dmitri Zuev, Alec White,
  David Stuck, Shaama M.S., Shane Yost, Joonho Lee, David Small,
  Daniel Levine, Susi Lehtola, Hugh Burton, Evgeny Epifanovsky,
  Bang C. Huynh
 -----------------------------------------------------------------------
 Exchange:     0.2000 Hartree-Fock + 0.0800 Slater + 0.7200 B88
 Correlation:  0.1900 VWN1RPA + 0.8100 LYP
 Using SG-1 standard quadrature grid
 A restricted SCF calculation will be
 performed using DIIS
 SCF converges when DIIS error is below 1.0e-05
 ---------------------------------------
  Cycle       Energy         DIIS error
 ---------------------------------------
    1    -604.2752311628      5.76e-02  
    2    -601.3543947750      6.41e-03  
    3    -601.1600695162      9.09e-03  
    4    -601.5430044057      1.56e-03  
    5    -601.5533868155      5.66e-04  
    6    -601.5545086343      2.99e-04  
    7    -601.5549577304      5.79e-05  
    8    -601.5549693814      2.68e-05  
    9    -601.5549727859      6.73e-06  Convergence criterion met
 ---------------------------------------
 SCF time:   CPU 21.19s  wall 22.00s 
 SCF   energy in the final basis set =     -601.5549727859
 Total energy in the final basis set =     -601.5549727859
 
 --------------------------------------------------------------
 
                    Orbital Energies (a.u.)
 --------------------------------------------------------------
 
 Alpha MOs
 -- Occupied --
-24.7491 -24.7389 -14.3280 -10.3624 -10.2373 -10.2221 -10.2073 -10.2049
-10.2014 -10.1992 -10.1983 -10.1880  -1.2907  -1.2294  -0.9547  -0.8315
 -0.8136  -0.7802  -0.7366  -0.6642  -0.6431  -0.6206  -0.5812  -0.5771
 -0.5456  -0.5239  -0.5007  -0.4938  -0.4595  -0.4560  -0.4454  -0.4392
 -0.4279  -0.4193  -0.4137  -0.3956  -0.3772  -0.3653  -0.3350  -0.2893
 -0.2742  -0.2561  -0.2195
 -- Virtual --
 -0.0536  -0.0196   0.0192   0.0862   0.0971   0.1055   0.1163   0.1303
  0.1501   0.1755   0.1770   0.1928   0.2007   0.2163   0.2628   0.2759
  0.2962   0.3421   0.3570   0.3807   0.3983   0.4109   0.4567   0.4717
  0.4914   0.5001   0.5098   0.5360   0.5537   0.5573   0.5692   0.5834
  0.5881   0.5975   0.6035   0.6145   0.6290   0.6298   0.6404   0.6652
  0.6893   0.7008   0.7171   0.7445   0.7676   0.8210   0.8289   0.8337
  0.8533   0.8649   0.8742   0.8815   0.8854   0.9254   0.9447   0.9744
  0.9808   1.0048   1.0285   1.0493   1.1057   1.1136   1.1362   1.1558
  1.1693   1.1910   1.2069   1.2346   1.2492   1.2522   1.3051   1.3140
  1.3325   1.3449   1.3999   1.4123   1.4383   1.4556   1.4697   1.4834
  1.4844   1.5103   1.5126   1.5174   1.5717   1.6596   1.6677   1.7131
  1.7355   1.7680   1.7785   1.8121   1.8167   1.8328   1.8539   1.8653
  1.8866   1.9106   1.9621   1.9664   1.9679   1.9914   2.0181   2.0229
  2.0391   2.0658   2.1002   2.1318   2.1572   2.1656   2.2114   2.2356
  2.2371   2.2530   2.2970   2.3487   2.3551   2.3793   2.3939   2.4972
  2.5115   2.5263   2.5703   2.6189   2.6364   2.6399   2.6725   2.7048
  2.7329   2.8009   2.8440   2.8852   2.9224   2.9570   3.0671   3.1329
  3.1681   3.3437   3.4619   4.0493   4.0774   4.1022   4.1436   4.1916
  4.2149   4.2610   4.3242   4.5260   4.6755   4.7960   5.2874
 --------------------------------------------------------------
 
          Ground-State Mulliken Net Atomic Charges

     Atom                 Charge (a.u.)
  ----------------------------------------
      1 C                    -0.348913
      2 C                    -0.118047
      3 C                     0.153395
      4 C                    -0.165528
      5 C                    -0.176656
      6 C                     0.314472
      7 C                    -0.272241
      8 C                     0.553235
      9 F                    -0.235542
     10 F                    -0.242829
     11 N                    -0.490387
     12 C                    -0.004836
     13 H                     0.148743
     14 H                     0.149686
     15 H                     0.130323
     16 H                     0.140913
     17 H                     0.145985
     18 H                     0.179108
     19 H                     0.139119
  ----------------------------------------
  Sum of atomic charges =     0.000000

 -----------------------------------------------------------------
                    Cartesian Multipole Moments
 -----------------------------------------------------------------
    Charge (ESU x 10^10)
                 0.0000
    Dipole Moment (Debye)
         X       1.3510      Y       1.3112      Z       0.0009
       Tot       1.8827
    Quadrupole Moments (Debye-Ang)
        XX     -62.8145     XY       0.9105     YY     -64.3967
        XZ       0.0261     YZ      -0.0540     ZZ     -69.1506
    Octopole Moments (Debye-Ang^2)
       XXX      -9.3642    XXY      -2.1542    XYY     -10.3042
       YYY      12.2502    XXZ       0.1286    XYZ      -0.1698
       YYZ       0.0281    XZZ     -27.3262    YZZ       1.3079
       ZZZ       0.0997
    Hexadecapole Moments (Debye-Ang^3)
      XXXX   -2820.8736   XXXY     -17.8625   XXYY    -519.9696
      XYYY      -3.7828   YYYY    -399.0544   XXXZ       0.8592
      XXYZ      -0.7359   XYYZ      -0.0734   YYYZ      -0.0964
      XXZZ    -521.5761   XYZZ      -6.4873   YYZZ     -83.3177
      XZZZ      -0.5376   YZZZ       0.0549   ZZZZ     -65.0973
 -----------------------------------------------------------------
Archival summary:
1\1\nia1977.scinet.local\SP\ProcedureUnspecified\6-31G*\2197\rhickman\MonFeb718:03:432022MonFeb718:03:432022\0\\#,ProcedureUnspecified,6-31G*,\\0,1\F\C,1,1.32798\C,2,1.32417,1,127.694\H,3,1.07954,2,116.9,1,179.973,0\F,2,1.32916,1,108.805,3,179.998,0\C,3,1.45436,2,128.228,1,0.0389199,0\N,6,1.33562,3,113.831,2,179.827,0\C,7,1.31227,6,119.466,3,-179.913,0\H,8,1.08133,7,114.826,6,-179.921,0\C,6,1.39745,3,124.683,2,-0.186295,0\H,10,1.07721,6,121.151,3,-0.101699,0\C,10,1.38018,6,118.569,3,179.906,0\H,12,1.08138,10,119.979,6,-179.97,0\C,12,1.39784,10,120.293,6,-0.00977875,0\C,14,1.45413,12,119.949,10,-179.899,0\H,15,1.08366,14,114.42,12,-0.961531,0\C,15,1.32827,14,126.413,12,178.94,0\H,17,1.07617,15,122.792,14,-0.0219088,0\H,17,1.07635,15,121.168,14,-179.948,0\\\@

 Total job time:  21.42s(wall), 21.34s(cpu) 
 Mon Feb  7 18:03:43 2022

        *************************************************************
        *                                                           *
        *  Thank you very much for using Q-Chem.  Have a nice day.  *
        *                                                           *
        *************************************************************


