
Running Job 1 of 1 fragments/B022/conf-0/spe_input.inp
qchem fragments/B022/conf-0/spe_input.inp_42626.0 /gpfs/fs0/scratch/a/aspuru/rhickman/descriptor_computation/qchem42626/ 0
/scinet/niagara/software/commercial/qc52/exe/qcprog.exe_s fragments/B022/conf-0/spe_input.inp_42626.0 /gpfs/fs0/scratch/a/aspuru/rhickman/descriptor_computation/qchem42626/
                  Welcome to Q-Chem
     A Quantum Leap Into The Future Of Chemistry


 Q-Chem 5.2, Q-Chem, Inc., Pleasanton, CA (2019)

 License issued to: SRG Alan Aspuru-Guzik, University of Toronto

 Yihan Shao,  Zhengting Gan,  E. Epifanovsky,  A. T. B. Gilbert,  M. Wormit,  
 J. Kussmann,  A. W. Lange,  A. Behn,  Jia Deng,  Xintian Feng,  D. Ghosh,  
 M. Goldey,  P. R. Horn,  L. D. Jacobson,  I. Kaliman,  T. Kus,  A. Landau,  
 Jie Liu,  E. I. Proynov,  R. M. Richard,  R. P. Steele,  E. J. Sundstrom,  
 H. L. Woodcock III,  P. M. Zimmerman,  D. Zuev,  B. Albrecht,  E. Alguire,  
 S. A. Baeppler,  D. Barton,  Z. Benda,  Y. A. Bernard,  E. J. Berquist,  
 K. B. Bravaya,  H. Burton,  D. Casanova,  Chun-Min Chang,  Yunqing Chen,  
 A. Chien,  K. D. Closser,  M. P. Coons,  S. Coriani,  S. Dasgupta,  
 A. L. Dempwolff,  M. Diedenhofen,  Hainam Do,  R. G. Edgar,  Po-Tung Fang,  
 S. Faraji,  S. Fatehi,  Qingguo Feng,  K. D. Fenk,  J. Fosso-Tande,  
 J. Gayvert,  Qinghui Ge,  A. Ghysels,  G. Gidofalvi,  J. Gomes,  
 J. Gonthier,  A. Gunina,  D. Hait,  M. W. D. Hanson-Heine,  
 P. H. P. Harbach,  A. W. Hauser,  M. F. Herbst,  J. E. Herr,  
 E. G. Hohenstein,  Z. C. Holden,  Kerwin Hui,  B. C. Huynh,  T.-C. Jagau,  
 Hyunjun Ji,  B. Kaduk,  K. Khistyaev,  Jaehoon Kim,  P. Klunzinger,  K. Koh,  
 D. Kosenkov,  L. Koulias,  T. Kowalczyk,  C. M. Krauter,  A. Kunitsa,  
 Ka Un Lao,  A. Laurent,  K. V. Lawler,  Joonho Lee,  D. Lefrancois,  
 S. Lehtola,  D. S. Levine,  Yi-Pei Li,  You-Sheng Lin,  Fenglai Liu,  
 E. Livshits,  A. Luenser,  P. Manohar,  E. Mansoor,  S. F. Manzer,  
 Shan-Ping Mao,  Yuezhi Mao,  N. Mardirossian,  A. V. Marenich,  
 T. Markovich,  L. A. Martinez-Martinez,  S. A. Maurer,  N. J. Mayhall,  
 S. C. McKenzie,  J.-M. Mewes,  P. Morgante,  A. F. Morrison,  
 J. W. Mullinax,  K. Nanda,  T. S. Nguyen-Beck,  R. Olivares-Amaya,  
 J. A. Parkhill,  Zheng Pei,  T. M. Perrine,  F. Plasser,  P. Pokhilko,  
 S. Prager,  A. Prociuk,  E. Ramos,  D. R. Rehn,  F. Rob,  M. Scheurer,  
 M. Schneider,  N. Sergueev,  S. M. Sharada,  S. Sharma,  D. W. Small,  
 T. Stauch,  T. Stein,  Yu-Chuan Su,  A. J. W. Thom,  A. Tkatchenko,  
 T. Tsuchimochi,  N. M. Tubman,  L. Vogt,  M. L. Vidal,  O. Vydrov,  
 M. A. Watson,  J. Wenzel,  M. de Wergifosse,  T. A. Wesolowski,  A. White,  
 J. Witte,  A. Yamada,  Jun Yang,  K. Yao,  S. Yeganeh,  S. R. Yost,  
 Zhi-Qiang You,  A. Zech,  Igor Ying Zhang,  Xing Zhang,  Yan Zhao,  
 Ying Zhu,  B. R. Brooks,  G. K. L. Chan,  C. J. Cramer,  M. S. Gordon,  
 W. J. Hehre,  A. Klamt,  M. W. Schmidt,  C. D. Sherrill,  D. G. Truhlar,  
 A. Aspuru-Guzik,  R. Baer,  A. T. Bell,  N. A. Besley,  Jeng-Da Chai,  
 A. E. DePrince, III,  R. A. DiStasio Jr.,  A. Dreuw,  B. D. Dunietz,  
 T. R. Furlani,  Chao-Ping Hsu,  Yousung Jung,  Jing Kong,  D. S. Lambrecht,  
 WanZhen Liang,  C. Ochsenfeld,  V. A. Rassolov,  L. V. Slipchenko,  
 J. E. Subotnik,  T. Van Voorhis,  J. M. Herbert,  A. I. Krylov,  
 P. M. W. Gill,  M. Head-Gordon

 Contributors to earlier versions of Q-Chem not listed above: 
 R. D. Adamson,  B. Austin,  J. Baker,  G. J. O. Beran,  K. Brandhorst,  
 S. T. Brown,  E. F. C. Byrd,  A. K. Chakraborty,  C.-L. Cheng,  
 Siu Hung Chien,  D. M. Chipman,  D. L. Crittenden,  H. Dachsel,  
 R. J. Doerksen,  A. D. Dutoi,  L. Fusti-Molnar,  W. A. Goddard III,  
 A. Golubeva-Zadorozhnaya,  S. R. Gwaltney,  G. Hawkins,  A. Heyden,  
 S. Hirata,  G. Kedziora,  F. J. Keil,  C. Kelley,  Jihan Kim,  R. A. King,  
 R. Z. Khaliullin,  P. P. Korambath,  W. Kurlancheek,  A. M. Lee,  M. S. Lee,  
 S. V. Levchenko,  Ching Yeh Lin,  D. Liotard,  R. C. Lochan,  I. Lotan,  
 P. E. Maslen,  N. Nair,  D. P. O'Neill,  D. Neuhauser,  E. Neuscamman,  
 C. M. Oana,  R. Olson,  B. Peters,  R. Peverati,  P. A. Pieniazek,  
 Y. M. Rhee,  J. Ritchie,  M. A. Rohrdanz,  E. Rosta,  N. J. Russ,  
 H. F. Schaefer III,  N. E. Schultz,  N. Shenvi,  A. C. Simmonett,  A. Sodt,  
 D. Stuck,  K. S. Thanthiriwatte,  V. Vanovschi,  Tao Wang,  A. Warshel,  
 C. F. Williams,  Q. Wu,  X. Xu,  W. Zhang

 Please cite Q-Chem as follows:
 Y. Shao et al., Mol. Phys. 113, 184-215 (2015)
 DOI: 10.1080/00268976.2014.952696

 Q-Chem 5.2.1 for Intel X86 EM64T Linux

 Parts of Q-Chem use Armadillo 8.300.2 (Tropical Shenanigans).
 http://arma.sourceforge.net/

 Q-Chem begins on Mon Feb  7 13:25:32 2022  

Host: 
0

     Scratch files written to /gpfs/fs0/scratch/a/aspuru/rhickman/descriptor_computation/qchem42626//
 Jul1719 |scratch|qcdevops|jenkins|workspace|build_RNUM -1
Processing $rem in /scinet/niagara/software/commercial/qc52/config/preferences:
	 MEM_TOTAL  4000 
NAlpha2: 94
NElect   94
Mult     1

Checking the input file for inconsistencies... 	...done.

--------------------------------------------------------------
User input:
--------------------------------------------------------------
$molecule
0 1
C        -2.56806589240000   -2.86937799770000    0.02245206690000
C        -2.92101610350000   -1.59020501900000   -0.01496382140000
C        -2.02772168070000   -0.43647418980000   -0.00921979060000
C        -2.58409414460000    0.84494152560000   -0.00251180470000
C        -1.77907353860000    1.96718182400000    0.00451402330000
C        -0.40817066200000    1.80988784510000    0.00354364160000
F         0.36722829390000    2.91515129220000    0.01009336400000
C         0.19868162650000    0.54923870020000   -0.00455615400000
C         1.65113676190000    0.47878070310000   -0.00622629960000
C         2.41769336130000   -0.60112994660000   -0.00167169520000
F         2.03646701890000   -1.87333199010000    0.00526811460000
F         3.74600671350000   -0.55034609410000   -0.00303769560000
C        -0.64030339110000   -0.56229485070000   -0.01134267930000
H        -3.30853655100000   -3.65045192200000    0.01558903770000
H        -1.54301086930000   -3.19498855240000    0.06307971610000
H        -3.97375411410000   -1.33794070970000   -0.05020856790000
H        -3.65761078880000    0.96121428790000   -0.00168275550000
H        -2.19764824530000    2.96123202580000    0.01040131130000
H         2.17781789020000    1.42233234220000   -0.01006574190000
H        -0.20489175870000   -1.54604253490000   -0.02128126760000
$end

$rem
BASIS = 6-31G*
GUI = 2
METHOD = B3LYP
PRINT_ORBITALS false
MOLDEN_FORMAT false
--------------------------------------------------------------
 ----------------------------------------------------------------
             Standard Nuclear Orientation (Angstroms)
    I     Atom           X                Y                Z
 ----------------------------------------------------------------
    1      C      -2.6250485449    -2.7001410547     0.0216749086
    2      C      -2.9054154987    -1.4031132398    -0.0153457357
    3      C      -1.9485776462    -0.3015111511    -0.0092705386
    4      C      -2.4319177060     1.0091960671    -0.0021623803
    5      C      -1.5649866963     2.0843274256     0.0051869099
    6      C      -0.2051149771     1.8500949637     0.0041401898
    7      F       0.6312854945     2.9099443869     0.0110088457
    8      C       0.3297940786     0.5572795418    -0.0043545360
    9      C       1.7759779584     0.4051537388    -0.0060763937
   10      C       2.4805144551    -0.7162058677    -0.0018652540
   11      F       2.0282619120    -1.9649269341     0.0046967670
   12      F       3.8095799773    -0.7402924844    -0.0032436101
   13      C      -0.5704446212    -0.5052497703    -0.0114605674
   14      H      -3.4083227260    -3.4382817874     0.0145905161
   15      H      -1.6199528985    -3.0829628458     0.0621824073
   16      H      -3.9422799374    -1.0919642894    -0.0504919933
   17      H      -3.4971846464     1.1857281816    -0.0012756448
   18      H      -1.9269276380     3.1003665958     0.0113843568
   19      H       2.3549499818     1.3175550427    -0.0096407392
   20      H      -0.1911133983    -1.5119495342    -0.0217065424
 ----------------------------------------------------------------
 Molecular Point Group                 C1    NOp =  1
 Largest Abelian Subgroup              C1    NOp =  1
 Nuclear Repulsion Energy =         742.28044817 hartrees
 There are       47 alpha and       47 beta electrons
 Requested basis set is 6-31G(d)
 There are 66 shells and 209 basis functions

 Total QAlloc Memory Limit   4000 MB
 Mega-Array Size       188 MB
 MEM_STATIC part       192 MB
 A cutoff of  1.0D-08 yielded   1489 shell pairs
 There are     15934 function pairs
 Smallest overlap matrix eigenvalue = 3.58E-04

 Scale SEOQF with 1.000000e-01/1.000000e-01/1.000000e+00

 Standard Electronic Orientation quadrupole field applied
 Nucleus-field energy     =     0.0000000352 hartrees
 Guess from superposition of atomic densities
 Warning:  Energy on first SCF cycle will be non-variational
 SAD guess density has 94.000000 electrons

 -----------------------------------------------------------------------
  General SCF calculation program by
  Eric Jon Sundstrom, Paul Horn, Yuezhi Mao, Dmitri Zuev, Alec White,
  David Stuck, Shaama M.S., Shane Yost, Joonho Lee, David Small,
  Daniel Levine, Susi Lehtola, Hugh Burton, Evgeny Epifanovsky,
  Bang C. Huynh
 -----------------------------------------------------------------------
 Exchange:     0.2000 Hartree-Fock + 0.0800 Slater + 0.7200 B88
 Correlation:  0.1900 VWN1RPA + 0.8100 LYP
 Using SG-1 standard quadrature grid
 A restricted SCF calculation will be
 performed using DIIS
 SCF converges when DIIS error is below 1.0e-05
 ---------------------------------------
  Cycle       Energy         DIIS error
 ---------------------------------------
    1    -687.6162851391      5.45e-02  
    2    -684.5422267582      6.12e-03  
    3    -684.3676944779      8.26e-03  
    4    -684.7390397831      1.38e-03  
    5    -684.7488219127      4.57e-04  
    6    -684.7496688361      2.24e-04  
    7    -684.7499446184      4.47e-05  
    8    -684.7499544180      1.82e-05  
    9    -684.7499561068      5.35e-06  Convergence criterion met
 ---------------------------------------
 SCF time:   CPU 26.14s  wall 26.00s 
 SCF   energy in the final basis set =     -684.7499561068
 Total energy in the final basis set =     -684.7499561068
 
 --------------------------------------------------------------
 
                    Orbital Energies (a.u.)
 --------------------------------------------------------------
 
 Alpha MOs
 -- Occupied --
-24.7489 -24.7384 -24.7142 -10.3617 -10.2759 -10.2167 -10.2070 -10.2014
-10.1992 -10.1984 -10.1970 -10.1942 -10.1829  -1.2903  -1.2292  -1.2255
 -0.8800  -0.8203  -0.7936  -0.7503  -0.7311  -0.6578  -0.6383  -0.6176
 -0.5844  -0.5639  -0.5469  -0.5329  -0.5236  -0.4976  -0.4784  -0.4676
 -0.4498  -0.4490  -0.4452  -0.4435  -0.4294  -0.4163  -0.4030  -0.3859
 -0.3812  -0.3572  -0.3478  -0.3208  -0.2906  -0.2376  -0.2201
 -- Virtual --
 -0.0345  -0.0331   0.0438   0.0803   0.0891   0.1086   0.1165   0.1259
  0.1489   0.1650   0.1737   0.1859   0.1885   0.2128   0.2386   0.2585
  0.2965   0.3310   0.3327   0.3522   0.4068   0.4119   0.4264   0.4732
  0.4881   0.4910   0.5183   0.5230   0.5339   0.5408   0.5538   0.5647
  0.5806   0.5812   0.5917   0.5971   0.6055   0.6143   0.6225   0.6325
  0.6335   0.6868   0.6935   0.7056   0.7409   0.7732   0.7982   0.7991
  0.8227   0.8420   0.8570   0.8637   0.8843   0.8937   0.9052   0.9488
  0.9575   0.9821   0.9996   1.0405   1.0471   1.0888   1.1070   1.1211
  1.1534   1.1597   1.1992   1.2009   1.2156   1.2203   1.2274   1.2502
  1.2552   1.2937   1.3192   1.3410   1.3624   1.4016   1.4071   1.4228
  1.4406   1.4583   1.4643   1.4731   1.4805   1.4955   1.5104   1.5510
  1.5936   1.6363   1.6732   1.7004   1.7637   1.7728   1.7767   1.8001
  1.8026   1.8037   1.8290   1.8327   1.8581   1.8600   1.8815   1.9327
  1.9394   1.9415   1.9724   1.9816   2.0040   2.0158   2.0296   2.0387
  2.0639   2.0736   2.1149   2.1486   2.1565   2.1962   2.2252   2.2375
  2.2467   2.2536   2.3032   2.3282   2.3370   2.3428   2.4183   2.4915
  2.5153   2.5169   2.5424   2.5835   2.6227   2.6439   2.6482   2.6890
  2.6948   2.7464   2.7759   2.8425   2.9005   2.9381   3.0097   3.0788
  3.0915   3.1314   3.1978   3.3420   3.4678   4.0641   4.0863   4.0955
  4.1222   4.1537   4.2380   4.2560   4.3789   4.4948   4.7270   4.7674
  5.2609   5.5526
 --------------------------------------------------------------
 
          Ground-State Mulliken Net Atomic Charges

     Atom                 Charge (a.u.)
  ----------------------------------------
      1 C                    -0.352741
      2 C                    -0.117659
      3 C                     0.188310
      4 C                    -0.200935
      5 C                    -0.193471
      6 C                     0.307103
      7 F                    -0.290516
      8 C                     0.124332
      9 C                    -0.298981
     10 C                     0.553079
     11 F                    -0.233887
     12 F                    -0.244096
     13 C                    -0.266552
     14 H                     0.146080
     15 H                     0.147094
     16 H                     0.128148
     17 H                     0.136925
     18 H                     0.146994
     19 H                     0.176522
     20 H                     0.144251
  ----------------------------------------
  Sum of atomic charges =     0.000000

 -----------------------------------------------------------------
                    Cartesian Multipole Moments
 -----------------------------------------------------------------
    Charge (ESU x 10^10)
                 0.0000
    Dipole Moment (Debye)
         X      -1.3163      Y      -0.0248      Z      -0.0082
       Tot       1.3166
    Quadrupole Moments (Debye-Ang)
        XX     -67.6286     XY      -0.6406     YY     -69.9407
        XZ       0.0585     YZ      -0.0415     ZZ     -74.2657
    Octopole Moments (Debye-Ang^2)
       XXX      17.0766    XXY       8.4199    XYY       2.9482
       YYY      -7.4114    XXZ      -0.3836    XYZ      -0.0815
       YYZ       0.2580    XZZ      24.8022    YZZ       1.2311
       ZZZ       0.1241
    Hexadecapole Moments (Debye-Ang^3)
      XXXX   -1916.4860   XXXY     -16.1015   XXYY    -494.4987
      XYYY     -42.5575   YYYY   -1161.0339   XXXZ       1.9117
      XXYZ       0.5176   XYYZ      -0.4807   YYYZ      -0.6392
      XXZZ    -356.6217   XYZZ     -21.0363   YYZZ    -219.5037
      XZZZ       0.1504   YZZZ       0.2662   ZZZZ     -69.4110
 -----------------------------------------------------------------
Archival summary:
1\1\nia1977.scinet.local\SP\ProcedureUnspecified\6-31G*\3107\rhickman\MonFeb713:25:582022MonFeb713:25:582022\0\\#,ProcedureUnspecified,6-31G*,\\0,1\F\C,1,1.32811\C,2,1.32433,1,127.951\H,3,1.0806,2,115.462,1,179.906,0\F,2,1.32928,1,108.871,3,179.976,0\C,3,1.45416,2,128.145,1,0.012438,0\C,6,1.39264,3,124.267,2,-0.684934,0\H,7,1.07584,6,119.081,3,-0.180508,0\C,7,1.39311,6,121.863,3,179.994,0\C,9,1.397,7,118.652,6,0.117216,0\H,10,1.0798,9,119.651,7,179.945,0\C,10,1.38113,9,120.878,7,-0.124261,0\H,12,1.0786,10,121.513,9,-179.958,0\C,12,1.3799,10,119.107,9,0.062125,0\F,14,1.35015,12,118.506,10,179.982,0\C,9,1.45914,7,122.567,6,-179.94,0\H,16,1.08311,9,114.268,7,-177.808,0\C,16,1.3275,9,126.8,7,2.43372,0\H,18,1.07629,16,123.079,9,0.0394974,0\H,18,1.0763,16,121.077,9,179.91,0\\\@

 Total job time:  26.39s(wall), 26.30s(cpu) 
 Mon Feb  7 13:25:58 2022

        *************************************************************
        *                                                           *
        *  Thank you very much for using Q-Chem.  Have a nice day.  *
        *                                                           *
        *************************************************************


