
Running Job 1 of 1 tidas/B033/conf-2/spe_input.inp
qchem tidas/B033/conf-2/spe_input.inp_148875.0 /home/a/aspuru/seifridm/acdc_laser/descriptor_computation/qchem148875/ 0
/gpfs/fs1/scinet/niagara/software/commercial/qc54/exe/qcprog.exe_s tidas/B033/conf-2/spe_input.inp_148875.0 /home/a/aspuru/seifridm/acdc_laser/descriptor_computation/qchem148875/
                  Welcome to Q-Chem
     A Quantum Leap Into The Future Of Chemistry


 Q-Chem 5.4, Q-Chem, Inc., Pleasanton, CA (2021)

 License issued to: SRG Alan Aspuru-Guzik, University of Toronto

 E. Epifanovsky,  A. T. B. Gilbert,  Xintian Feng,  Joonho Lee,  Yuezhi Mao,  
 N. Mardirossian,  P. Pokhilko,  A. White,  M. Wormit,  M. P. Coons,  
 A. L. Dempwolff,  Zhengting Gan,  D. Hait,  P. R. Horn,  L. D. Jacobson,  
 I. Kaliman,  J. Kussmann,  A. W. Lange,  Ka Un Lao,  D. S. Levine,  Jie Liu,  
 S. C. McKenzie,  A. F. Morrison,  K. Nanda,  F. Plasser,  D. R. Rehn,  
 M. L. Vidal,  Zhi-Qiang You,  Ying Zhu,  B. Alam,  B. Albrecht,  
 A. Aldossary,  E. Alguire,  J. H. Andersen,  D. Barton,  K. Begam,  A. Behn,  
 Y. A. Bernard,  E. J. Berquist,  H. Burton,  A. Carreras,  K. Carter-Fenk,  
 Romit Chakraborty,  A. D. Chien,  K. D. Closser,  V. Cofer-Shabica,  
 S. Dasgupta,  Jia Deng,  M. de Wergifosse,  M. Diedenhofen,  Hainam Do,  
 S. Ehlert,  Po-Tung Fang,  S. Fatehi,  Qingguo Feng,  T. Friedhoff,  
 J. Gayvert,  Qinghui Ge,  G. Gidofalvi,  M. Goldey,  J. Gomes,  
 C. Gonzalez-Espinoza,  S. Gulania,  A. Gunina,  M. W. D. Hanson-Heine,  
 P. H. P. Harbach,  A. W. Hauser,  M. F. Herbst,  M. Hernandez Vera,  
 M. Hodecker,  Z. C. Holden,  S. Houck,  Xunkun Huang,  Kerwin Hui,  
 B. C. Huynh,  M. Ivanov,  Hyunjun Ji,  Hanjie Jiang,  B. Kaduk,  S. Kaehler,  
 K. Khistyaev,  Jaehoon Kim,  P. Klunzinger,  Z. Koczor-Benda,  
 Joong Hoon Koh,  D. Kosenkov,  L. Koulias,  T. Kowalczyk,  C. M. Krauter,  
 K. Kue,  A. Kunitsa,  T. Kus,  A. Landau,  K. V. Lawler,  D. Lefrancois,  
 S. Lehtola,  Rain Li,  Yi-Pei Li,  Jiashu Liang,  M. Liebenthal,  
 Hung-Hsuan Lin,  You-Sheng Lin,  Fenglai Liu,  Kuan-Yu Liu,  
 M. Loipersberger,  A. Luenser,  A. Manjanath,  P. Manohar,  E. Mansoor,  
 S. F. Manzer,  Shan-Ping Mao,  A. V. Marenich,  T. Markovich,  S. Mason,  
 S. A. Maurer,  P. F. McLaughlin,  M. F. S. J. Menger,  J.-M. Mewes,  
 S. A. Mewes,  P. Morgante,  J. W. Mullinax,  K. J. Oosterbaan,  G. Paran,  
 Alexander C. Paul,  Suranjan K. Paul,  F. Pavosevic,  Zheng Pei,  S. Prager,  
 E. I. Proynov,  E. Ramos,  B. Rana,  A. E. Rask,  A. Rettig,  R. M. Richard,  
 F. Rob,  E. Rossomme,  T. Scheele,  M. Scheurer,  M. Schneider,  
 N. Sergueev,  S. M. Sharada,  W. Skomorowski,  D. W. Small,  C. J. Stein,  
 Yu-Chuan Su,  E. J. Sundstrom,  Zhen Tao,  J. Thirman,  T. Tsuchimochi,  
 N. M. Tubman,  S. P. Veccham,  O. Vydrov,  J. Wenzel,  J. Witte,  A. Yamada,  
 Kun Yao,  S. Yeganeh,  S. R. Yost,  A. Zech,  Igor Ying Zhang,  Xing Zhang,  
 Yu Zhang,  D. Zuev,  A. Aspuru-Guzik,  A. T. Bell,  N. A. Besley,  
 K. B. Bravaya,  B. R. Brooks,  D. Casanova,  Jeng-Da Chai,  S. Coriani,  
 C. J. Cramer,  A. E. DePrince, III,  R. A. DiStasio Jr.,  A. Dreuw,  
 B. D. Dunietz,  T. R. Furlani,  W. A. Goddard III,  S. Grimme,  
 S. Hammes-Schiffer,  T. Head-Gordon,  W. J. Hehre,  Chao-Ping Hsu,  
 T.-C. Jagau,  Yousung Jung,  A. Klamt,  Jing Kong,  D. S. Lambrecht,  
 WanZhen Liang,  N. J. Mayhall,  C. W. McCurdy,  J. B. Neaton,  T. Neudecker,  
 C. Ochsenfeld,  J. A. Parkhill,  R. Peverati,  V. A. Rassolov,  Yihan Shao,  
 L. V. Slipchenko,  R. P. Steele,  J. E. Subotnik,  A. J. W. Thom,  
 A. Tkatchenko,  D. G. Truhlar,  T. Van Voorhis,  T. A. Wesolowski,  
 K. B. Whaley,  H. L. Woodcock III,  P. M. Zimmerman,  S. Faraji,  
 P. M. W. Gill,  M. Head-Gordon,  J. M. Herbert,  A. I. Krylov

 Additional authors since Version 5.4.0: 
 Chandrima Chakravarty,  L. Cunha,  R. Kang,  Yongbin Kim,  S. Kotaru,  
 Shaozhi Li,  Xiangyuan Li,  F. Matz,  A. Molle,  V. Parravicini,  
 Haisheng Ren,  Hengyuan Shen,  Yingli Su,  Hung-Yi Tsai,  C. Utku,  
 Fang Wang,  Jeff Yang,  F. Zeller

 Contributors to earlier versions of Q-Chem not listed above: 
 R. D. Adamson,  B. Austin,  R. Baer,  J. Baker,  G. J. O. Beran,  
 K. Brandhorst,  S. T. Brown,  E. F. C. Byrd,  Arup K. Chakraborty,  
 G. K. L. Chan,  Chun-Min Chang,  Yunqing Chen,  C.-L. Cheng,  
 Siu Hung Chien,  D. M. Chipman,  D. L. Crittenden,  H. Dachsel,  
 R. J. Doerksen,  A. D. Dutoi,  R. G. Edgar,  J. Fosso-Tande,  
 L. Fusti-Molnar,  D. Ghosh,  A. Ghysels,  A. Golubeva-Zadorozhnaya,  
 J. Gonthier,  M. S. Gordon,  S. R. Gwaltney,  G. Hawkins,  J. E. Herr,  
 A. Heyden,  S. Hirata,  E. G. Hohenstein,  G. Kedziora,  F. J. Keil,  
 C. Kelley,  Jihan Kim,  R. A. King,  R. Z. Khaliullin,  P. P. Korambath,  
 W. Kurlancheek,  A. Laurent,  A. M. Lee,  M. S. Lee,  S. V. Levchenko,  
 Ching Yeh Lin,  D. Liotard,  E. Livshits,  R. C. Lochan,  I. Lotan,  
 L. A. Martinez-Martinez,  P. E. Maslen,  N. Nair,  D. P. O'Neill,  
 D. Neuhauser,  E. Neuscamman,  C. M. Oana,  R. Olivares-Amaya,  R. Olson,  
 T. M. Perrine,  B. Peters,  P. A. Pieniazek,  A. Prociuk,  Y. M. Rhee,  
 J. Ritchie,  M. A. Rohrdanz,  E. Rosta,  N. J. Russ,  H. F. Schaefer III,  
 M. W. Schmidt,  N. E. Schultz,  S. Sharma,  N. Shenvi,  C. D. Sherrill,  
 A. C. Simmonett,  A. Sodt,  T. Stein,  D. Stuck,  K. S. Thanthiriwatte,  
 V. Vanovschi,  L. Vogt,  Tao Wang,  A. Warshel,  M. A. Watson,  
 C. F. Williams,  Q. Wu,  X. Xu,  Jun Yang,  W. Zhang,  Yan Zhao

   Please cite Q-Chem as follows:
  "Software for the frontiers of quantum chemistry:
   An overview of developments in the Q-Chem 5 package"
   J. Chem. Phys. 155, 084801 (2021)
   https://doi.org/10.1063/5.0055522 (open access)

 Q-Chem 5.4.2 for Intel X86 EM64T Linux

 Parts of Q-Chem use Armadillo 9.900.5 (Nocturnal Misbehaviour).
 http://arma.sourceforge.net/

 Q-Chem begins on Fri Aug 12 13:12:52 2022  

 Host: 
0

     Scratch files written to /home/a/aspuru/seifridm/acdc_laser/descriptor_computation/qchem148875//
 Dec1321 |scratch|qcdevops|jenkins|workspace|build_RNUM 6959   
 Processing $rem in /gpfs/fs1/scinet/niagara/software/commercial/qc54/config/preferences:
 Processing $rem in /home/a/aspuru/seifridm/.qchemrc:

 Checking the input file for inconsistencies... 	...done.

--------------------------------------------------------------
User input:
--------------------------------------------------------------
$molecule
0 1
C           -3.19659636290000        2.28149004780000       -1.13031197580000
C           -3.08572343330000        1.25569168490000       -0.29724975760000
C           -1.89854228610000        0.40899401370000       -0.15323841160000
C           -2.10331934070000       -0.94642779700000        0.09895187640000
C           -1.03396226430000       -1.82024580810000        0.15373941950000
Cl          -1.31925520590000       -3.49799131740000        0.45388694780000
C            0.26007936190000       -1.37452353040000       -0.04020721340000
C            0.49780113190000       -0.01833598070000       -0.25551454430000
C            1.83126774290000        0.52477891150000       -0.46022137310000
C            2.99853048000000       -0.08311417110000       -0.31936125730000
F            3.23200021040000       -1.33710612240000        0.04837931430000
F            4.16318901080000        0.52556254160000       -0.53184699750000
C           -0.58556677300000        0.88148423480000       -0.29292329260000
O           -0.31041043140000        2.21588338480000       -0.48330774780000
C           -0.56762355750000        3.06360057050000        0.62897169100000
C            0.39633286720000        2.81905791750000        1.78484909820000
H           -4.11596560640000        2.83504453780000       -1.21832638900000
H           -2.37852960060000        2.59889707800000       -1.75365533560000
H           -3.94035369760000        0.94110382440000        0.28937968870000
H           -3.10874250090000       -1.31738499320000        0.22539854720000
H            1.07375085860000       -2.07911630010000       -0.01614461800000
H            1.86938240940000        1.56117856420000       -0.76196373820000
H           -1.60143682060000        2.93988527780000        0.97263575110000
H           -0.44467517280000        4.07509240870000        0.23498421000000
H            0.28946751500000        1.80256896920000        2.15872635420000
H            0.17787575940000        3.51343066060000        2.59125884420000
H            1.42459080250000        2.96578478230000        1.46402379420000
$end

$rem
BASIS = 6-31G*
GUI = 2
METHOD = B3LYP
PRINT_ORBITALS false
MOLDEN_FORMAT false
$end
--------------------------------------------------------------
 ----------------------------------------------------------------
             Standard Nuclear Orientation (Angstroms)
    I     Atom           X                Y                Z
 ----------------------------------------------------------------
    1      C       3.5596172997    -1.3985384429    -1.1203798402
    2      C       3.2092777586    -0.4134579901    -0.3046430844
    3      C       1.8556428206     0.1313018346    -0.1706860822
    4      C       1.7343747955     1.5009619547     0.0574083936
    5      C       0.4888565097     2.0983286422     0.1012420414
    6      Cl      0.3696737997     3.8010020134     0.3714446838
    7      C      -0.6632146061     1.3562550672    -0.0801038408
    8      C      -0.5737916747    -0.0212811171    -0.2711827688
    9      C      -1.7411635467    -0.8674770522    -0.4614647346
   10      C      -3.0190355595    -0.5500793140    -0.3266327488
   11      F      -3.5422332530     0.6195654500     0.0204009045
   12      F      -4.0068871934    -1.4202404061    -0.5242076631
   13      C       0.6914764885    -0.6402956447    -0.2972469536
   14      O       0.7393684775    -2.0050661134    -0.4636388694
   15      C       1.1891321361    -2.7483589549     0.6620506848
   16      C       0.1942677661    -2.7181088176     1.8172110602
   17      H       4.5837560507    -1.7207604521    -1.2023658855
   18      H       2.8399006174    -1.9110849689    -1.7350678509
   19      H       3.9652026344     0.1043393185     0.2732462193
   20      H       2.6236790930     2.1010457890     0.1736451830
   21      H      -1.6202992492     1.8490570664    -0.0650552603
   22      H      -1.5332858945    -1.8887006467    -0.7452158130
   23      H       2.1643436922    -2.3779582969     0.9996097109
   24      H       1.3087269710    -3.7670411834     0.2859632322
   25      H       0.0578720076    -1.6987237140     2.1731666692
   26      H       0.5702631015    -3.3269518907     2.6345918239
   27      H      -0.7701185488    -3.1091527257     1.5028613701
 ----------------------------------------------------------------
 Molecular Point Group                 C1    NOp =  1
 Largest Abelian Subgroup              C1    NOp =  1
 Nuclear Repulsion Energy =        1194.53046257 hartrees
 There are       63 alpha and       63 beta electrons
 Requested basis set is 6-31G(d)
 There are 87 shells and 266 basis functions

 Total QAlloc Memory Limit   8000 MB
 Mega-Array Size       188 MB
 MEM_STATIC part       192 MB
 A cutoff of  1.0D-08 yielded   2464 shell pairs
 There are     24130 function pairs
 Smallest overlap matrix eigenvalue = 3.04E-04

 Scale SEOQF with 1.000000e-01/1.000000e-01/1.000000e-01

 Standard Electronic Orientation quadrupole field applied
 Nucleus-field energy     =     0.0000000521 hartrees
 Guess from superposition of atomic densities
 Warning:  Energy on first SCF cycle will be non-variational
 SAD guess density has 126.000000 electrons

 -----------------------------------------------------------------------
  General SCF calculation program by
  Eric Jon Sundstrom, Paul Horn, Yuezhi Mao, Dmitri Zuev, Alec White,
  David Stuck, Shaama M.S., Shane Yost, Joonho Lee, David Small,
  Daniel Levine, Susi Lehtola, Hugh Burton, Evgeny Epifanovsky,
  Bang C. Huynh
 -----------------------------------------------------------------------
 Exchange:     0.2000 Hartree-Fock + 0.0800 Slater + 0.7200 B88
 Correlation:  0.1900 VWN1RPA + 0.8100 LYP
 Using SG-1 standard quadrature grid
 A restricted SCF calculation will be
 performed using DIIS
 SCF converges when DIIS error is below 1.0e-05
 ---------------------------------------
  Cycle       Energy         DIIS error
 ---------------------------------------
    1   -1202.4152252465      4.79e-02  
    2   -1198.7026645120      5.21e-03  
    3   -1198.5328127135      6.79e-03  
    4   -1198.9259697112      1.30e-03  
    5   -1198.9400320006      4.48e-04  
    6   -1198.9414963693      1.87e-04  
    7   -1198.9417905671      5.73e-05  
    8   -1198.9418188332      1.76e-05  
    9   -1198.9418225965      5.09e-06  Convergence criterion met
 ---------------------------------------
 SCF time:   CPU 69.14s  wall 71.00s 
 SCF   energy in the final basis set =    -1198.9418225965
 Total energy in the final basis set =    -1198.9418225965
 
 --------------------------------------------------------------
 
                    Orbital Energies (a.u.)
 --------------------------------------------------------------
 
 Alpha MOs
 -- Occupied --
******** -24.7471 -24.7364 -19.1735 -10.3599 -10.2531 -10.2491 -10.2412
-10.2162 -10.2099 -10.2026 -10.2022 -10.2010 -10.1997 -10.1865 -10.1814
 -9.4652  -7.2289  -7.2195  -7.2192  -1.2883  -1.2271  -1.0653  -0.9002
 -0.8518  -0.8232  -0.7813  -0.7701  -0.7409  -0.7222  -0.6554  -0.6497
 -0.6242  -0.6061  -0.5772  -0.5615  -0.5290  -0.5222  -0.5214  -0.5038
 -0.4866  -0.4761  -0.4605  -0.4472  -0.4434  -0.4423  -0.4345  -0.4264
 -0.4155  -0.4059  -0.3980  -0.3910  -0.3848  -0.3780  -0.3626  -0.3501
 -0.3347  -0.3182  -0.3124  -0.2845  -0.2728  -0.2319  -0.2231
 -- Virtual --
 -0.0427  -0.0267   0.0283   0.0409   0.0681   0.0960   0.1140   0.1164
  0.1231   0.1423   0.1468   0.1495   0.1541   0.1662   0.1685   0.1781
  0.1819   0.1888   0.2026   0.2160   0.2332   0.2424   0.2765   0.2940
  0.3078   0.3175   0.3435   0.3735   0.3920   0.4083   0.4156   0.4318
  0.4414   0.4497   0.4737   0.4801   0.4885   0.5110   0.5171   0.5242
  0.5295   0.5350   0.5469   0.5504   0.5550   0.5717   0.5803   0.5912
  0.5990   0.6036   0.6152   0.6233   0.6298   0.6358   0.6665   0.6808
  0.6906   0.7293   0.7400   0.7491   0.7724   0.7871   0.7911   0.8033
  0.8251   0.8296   0.8395   0.8541   0.8578   0.8666   0.8722   0.8762
  0.8928   0.9009   0.9157   0.9203   0.9283   0.9347   0.9522   0.9695
  0.9774   0.9907   1.0165   1.0263   1.0437   1.0663   1.0906   1.1054
  1.1071   1.1190   1.1371   1.1682   1.1686   1.1788   1.2038   1.2106
  1.2224   1.2302   1.2474   1.2929   1.3105   1.3276   1.3502   1.3618
  1.3690   1.3969   1.4055   1.4413   1.4446   1.4719   1.4767   1.4865
  1.5046   1.5256   1.5439   1.5534   1.5693   1.6055   1.6300   1.6678
  1.7128   1.7274   1.7622   1.7659   1.7744   1.7832   1.7991   1.8061
  1.8356   1.8399   1.8612   1.8813   1.9116   1.9226   1.9315   1.9376
  1.9642   1.9749   1.9861   1.9971   2.0088   2.0275   2.0370   2.0420
  2.0681   2.0913   2.1192   2.1365   2.1502   2.1639   2.2162   2.2246
  2.2324   2.2495   2.2535   2.2843   2.2995   2.3188   2.3337   2.3618
  2.3869   2.4113   2.4275   2.4779   2.5159   2.5284   2.5484   2.5733
  2.6014   2.6346   2.6550   2.6747   2.6894   2.7160   2.7238   2.7844
  2.8338   2.8630   2.8968   2.9064   2.9316   3.0301   3.0542   3.1514
  3.1871   3.3272   3.4479   4.0665   4.0866   4.1045   4.1245   4.1594
  4.1806   4.2308   4.2559   4.2864   4.3917   4.4403   4.4803   4.5200
  4.7268   4.8850   5.3227
 --------------------------------------------------------------
 
          Ground-State Mulliken Net Atomic Charges

     Atom                 Charge (a.u.)
  ----------------------------------------
      1 C                    -0.325437
      2 C                    -0.153395
      3 C                     0.160080
      4 C                    -0.210897
      5 C                    -0.058886
      6 Cl                   -0.015927
      7 C                    -0.219074
      8 C                     0.157316
      9 C                    -0.291578
     10 C                     0.548680
     11 F                    -0.233891
     12 F                    -0.246303
     13 C                     0.214164
     14 O                    -0.537226
     15 C                    -0.039780
     16 C                    -0.463544
     17 H                     0.144645
     18 H                     0.168758
     19 H                     0.137802
     20 H                     0.150811
     21 H                     0.161437
     22 H                     0.182197
     23 H                     0.149166
     24 H                     0.149026
     25 H                     0.163567
     26 H                     0.150856
     27 H                     0.157434
  ----------------------------------------
  Sum of atomic charges =     0.000000

 -----------------------------------------------------------------
                    Cartesian Multipole Moments
 -----------------------------------------------------------------
    Charge (ESU x 10^10)
                 0.0000
    Dipole Moment (Debye)
         X       1.6751      Y      -2.1970      Z       0.8175
       Tot       2.8812
    Quadrupole Moments (Debye-Ang)
        XX     -94.2941     XY      -2.4865     YY     -98.5623
        XZ       1.2009     YZ      -2.0306     ZZ     -98.5609
    Octopole Moments (Debye-Ang^2)
       XXX      -9.3647    XXY       1.2194    XYY     -11.7078
       YYY     -35.5293    XXZ       0.9540    XYZ       2.2896
       YYZ       3.1430    XZZ     -19.7186    YZZ      -6.1491
       ZZZ      -1.3393
    Hexadecapole Moments (Debye-Ang^3)
      XXXX   -2548.1872   XXXY     -12.1942   XXYY    -826.5900
      XYYY      -4.9140   YYYY   -2452.0324   XXXZ       7.8064
      XXYZ      15.8760   XYYZ       5.8896   YYYZ       0.8342
      XXZZ    -495.7499   XYZZ      -2.7264   YYZZ    -474.0998
      XZZZ      20.1525   YZZZ      11.8969   ZZZZ    -383.8467
 -----------------------------------------------------------------
 Total job time:  70.99s(wall), 69.64s(cpu) 
 Fri Aug 12 13:14:03 2022

        *************************************************************
        *                                                           *
        *  Thank you very much for using Q-Chem.  Have a nice day.  *
        *                                                           *
        *************************************************************


