
Running Job 1 of 1 fragments/A009/conf-0/spe_input.inp
qchem fragments/A009/conf-0/spe_input.inp_244827.0 /gpfs/fs0/scratch/a/aspuru/rhickman/descriptor_computation/qchem244827/ 0
/scinet/niagara/software/commercial/qc52/exe/qcprog.exe_s fragments/A009/conf-0/spe_input.inp_244827.0 /gpfs/fs0/scratch/a/aspuru/rhickman/descriptor_computation/qchem244827/
                  Welcome to Q-Chem
     A Quantum Leap Into The Future Of Chemistry


 Q-Chem 5.2, Q-Chem, Inc., Pleasanton, CA (2019)

 License issued to: SRG Alan Aspuru-Guzik, University of Toronto

 Yihan Shao,  Zhengting Gan,  E. Epifanovsky,  A. T. B. Gilbert,  M. Wormit,  
 J. Kussmann,  A. W. Lange,  A. Behn,  Jia Deng,  Xintian Feng,  D. Ghosh,  
 M. Goldey,  P. R. Horn,  L. D. Jacobson,  I. Kaliman,  T. Kus,  A. Landau,  
 Jie Liu,  E. I. Proynov,  R. M. Richard,  R. P. Steele,  E. J. Sundstrom,  
 H. L. Woodcock III,  P. M. Zimmerman,  D. Zuev,  B. Albrecht,  E. Alguire,  
 S. A. Baeppler,  D. Barton,  Z. Benda,  Y. A. Bernard,  E. J. Berquist,  
 K. B. Bravaya,  H. Burton,  D. Casanova,  Chun-Min Chang,  Yunqing Chen,  
 A. Chien,  K. D. Closser,  M. P. Coons,  S. Coriani,  S. Dasgupta,  
 A. L. Dempwolff,  M. Diedenhofen,  Hainam Do,  R. G. Edgar,  Po-Tung Fang,  
 S. Faraji,  S. Fatehi,  Qingguo Feng,  K. D. Fenk,  J. Fosso-Tande,  
 J. Gayvert,  Qinghui Ge,  A. Ghysels,  G. Gidofalvi,  J. Gomes,  
 J. Gonthier,  A. Gunina,  D. Hait,  M. W. D. Hanson-Heine,  
 P. H. P. Harbach,  A. W. Hauser,  M. F. Herbst,  J. E. Herr,  
 E. G. Hohenstein,  Z. C. Holden,  Kerwin Hui,  B. C. Huynh,  T.-C. Jagau,  
 Hyunjun Ji,  B. Kaduk,  K. Khistyaev,  Jaehoon Kim,  P. Klunzinger,  K. Koh,  
 D. Kosenkov,  L. Koulias,  T. Kowalczyk,  C. M. Krauter,  A. Kunitsa,  
 Ka Un Lao,  A. Laurent,  K. V. Lawler,  Joonho Lee,  D. Lefrancois,  
 S. Lehtola,  D. S. Levine,  Yi-Pei Li,  You-Sheng Lin,  Fenglai Liu,  
 E. Livshits,  A. Luenser,  P. Manohar,  E. Mansoor,  S. F. Manzer,  
 Shan-Ping Mao,  Yuezhi Mao,  N. Mardirossian,  A. V. Marenich,  
 T. Markovich,  L. A. Martinez-Martinez,  S. A. Maurer,  N. J. Mayhall,  
 S. C. McKenzie,  J.-M. Mewes,  P. Morgante,  A. F. Morrison,  
 J. W. Mullinax,  K. Nanda,  T. S. Nguyen-Beck,  R. Olivares-Amaya,  
 J. A. Parkhill,  Zheng Pei,  T. M. Perrine,  F. Plasser,  P. Pokhilko,  
 S. Prager,  A. Prociuk,  E. Ramos,  D. R. Rehn,  F. Rob,  M. Scheurer,  
 M. Schneider,  N. Sergueev,  S. M. Sharada,  S. Sharma,  D. W. Small,  
 T. Stauch,  T. Stein,  Yu-Chuan Su,  A. J. W. Thom,  A. Tkatchenko,  
 T. Tsuchimochi,  N. M. Tubman,  L. Vogt,  M. L. Vidal,  O. Vydrov,  
 M. A. Watson,  J. Wenzel,  M. de Wergifosse,  T. A. Wesolowski,  A. White,  
 J. Witte,  A. Yamada,  Jun Yang,  K. Yao,  S. Yeganeh,  S. R. Yost,  
 Zhi-Qiang You,  A. Zech,  Igor Ying Zhang,  Xing Zhang,  Yan Zhao,  
 Ying Zhu,  B. R. Brooks,  G. K. L. Chan,  C. J. Cramer,  M. S. Gordon,  
 W. J. Hehre,  A. Klamt,  M. W. Schmidt,  C. D. Sherrill,  D. G. Truhlar,  
 A. Aspuru-Guzik,  R. Baer,  A. T. Bell,  N. A. Besley,  Jeng-Da Chai,  
 A. E. DePrince, III,  R. A. DiStasio Jr.,  A. Dreuw,  B. D. Dunietz,  
 T. R. Furlani,  Chao-Ping Hsu,  Yousung Jung,  Jing Kong,  D. S. Lambrecht,  
 WanZhen Liang,  C. Ochsenfeld,  V. A. Rassolov,  L. V. Slipchenko,  
 J. E. Subotnik,  T. Van Voorhis,  J. M. Herbert,  A. I. Krylov,  
 P. M. W. Gill,  M. Head-Gordon

 Contributors to earlier versions of Q-Chem not listed above: 
 R. D. Adamson,  B. Austin,  J. Baker,  G. J. O. Beran,  K. Brandhorst,  
 S. T. Brown,  E. F. C. Byrd,  A. K. Chakraborty,  C.-L. Cheng,  
 Siu Hung Chien,  D. M. Chipman,  D. L. Crittenden,  H. Dachsel,  
 R. J. Doerksen,  A. D. Dutoi,  L. Fusti-Molnar,  W. A. Goddard III,  
 A. Golubeva-Zadorozhnaya,  S. R. Gwaltney,  G. Hawkins,  A. Heyden,  
 S. Hirata,  G. Kedziora,  F. J. Keil,  C. Kelley,  Jihan Kim,  R. A. King,  
 R. Z. Khaliullin,  P. P. Korambath,  W. Kurlancheek,  A. M. Lee,  M. S. Lee,  
 S. V. Levchenko,  Ching Yeh Lin,  D. Liotard,  R. C. Lochan,  I. Lotan,  
 P. E. Maslen,  N. Nair,  D. P. O'Neill,  D. Neuhauser,  E. Neuscamman,  
 C. M. Oana,  R. Olson,  B. Peters,  R. Peverati,  P. A. Pieniazek,  
 Y. M. Rhee,  J. Ritchie,  M. A. Rohrdanz,  E. Rosta,  N. J. Russ,  
 H. F. Schaefer III,  N. E. Schultz,  N. Shenvi,  A. C. Simmonett,  A. Sodt,  
 D. Stuck,  K. S. Thanthiriwatte,  V. Vanovschi,  Tao Wang,  A. Warshel,  
 C. F. Williams,  Q. Wu,  X. Xu,  W. Zhang

 Please cite Q-Chem as follows:
 Y. Shao et al., Mol. Phys. 113, 184-215 (2015)
 DOI: 10.1080/00268976.2014.952696

 Q-Chem 5.2.1 for Intel X86 EM64T Linux

 Parts of Q-Chem use Armadillo 8.300.2 (Tropical Shenanigans).
 http://arma.sourceforge.net/

 Q-Chem begins on Mon Feb  7 08:11:45 2022  

Host: 
0

     Scratch files written to /gpfs/fs0/scratch/a/aspuru/rhickman/descriptor_computation/qchem244827//
 Jul1719 |scratch|qcdevops|jenkins|workspace|build_RNUM -1
Processing $rem in /scinet/niagara/software/commercial/qc52/config/preferences:
	 MEM_TOTAL  4000 
NAlpha2: 160
NElect   160
Mult     1

Checking the input file for inconsistencies... 	...done.

--------------------------------------------------------------
User input:
--------------------------------------------------------------
$molecule
0 1
F        -5.76935996260000    0.79971023610000    0.97338233210000
C        -4.82371955120000    0.03055405120000    0.43396150330000
F        -5.40304139040000   -1.01453162560000   -0.14471114300000
C        -3.53315319030000    0.32012262960000    0.50031440270000
C        -2.40747645640000   -0.42511643490000   -0.04274177550000
C        -1.13169533560000    0.09432554010000    0.16546482760000
C         0.00010227980000   -0.55152315120000   -0.32469345790000
N         1.26893049540000   -0.00992927800000   -0.11488176760000
C         2.36867383210000   -0.85347735740000    0.09207065400000
C         3.61400254160000   -0.53328738260000   -0.44701067690000
C         4.69769677550000   -1.36323422020000   -0.23495388540000
C         4.55779448270000   -2.52464447220000    0.50694790530000
C         3.32180727270000   -2.84862377840000    1.04192539310000
C         2.23409989010000   -2.02065764110000    0.84291367710000
C         1.45054338210000    1.37941962460000   -0.10932144190000
C         0.74341753030000    2.18995609990000   -0.99685215050000
C         0.92580039690000    3.55918704010000   -0.98453402320000
C         1.81806984790000    4.14065925410000   -0.09865373070000
C         2.52723627620000    3.33918458820000    0.78090620910000
C         2.34532557630000    1.96981415280000    0.78234503870000
C        -0.15697201560000   -1.74716434660000   -1.02857940930000
C        -1.41992228640000   -2.27052765720000   -1.22586914390000
C        -2.54419584120000   -1.62372919310000   -0.74560102040000
H        -3.29587641760000    1.23331412960000    1.02722897460000
H        -1.01370066560000    1.01422800190000    0.71950030420000
H         3.72310195850000    0.36747499470000   -1.03314720260000
H         5.65654761910000   -1.10483273740000   -0.65963035890000
H         5.40605887120000   -3.17242822910000    0.66757428500000
H         3.20470145380000   -3.74890931960000    1.62699621940000
H         1.27385701560000   -2.27004170110000    1.27037989870000
H         0.05553204300000    1.73804877200000   -1.69660040660000
H         0.37346142550000    4.17540880950000   -1.67863885150000
H         1.96034890370000    5.21055366460000   -0.09454286660000
H         3.22206242290000    3.78402920590000    1.47790719500000
H         2.89295456440000    1.34749631370000    1.47488958350000
H         0.71210747990000   -2.25412210780000   -1.41998470750000
H        -1.53095979430000   -3.19452705330000   -1.77334151630000
H        -3.51673779110000   -2.05156104000000   -0.91937280470000
$end

$rem
BASIS = 6-31G*
GUI = 2
METHOD = B3LYP
PRINT_ORBITALS false
MOLDEN_FORMAT false
--------------------------------------------------------------
 ----------------------------------------------------------------
             Standard Nuclear Orientation (Angstroms)
    I     Atom           X                Y                Z
 ----------------------------------------------------------------
    1      F       5.8593479549    -0.7802590208     1.0126620905
    2      C       4.9148843458    -0.0141984321     0.4668127336
    3      F       5.4949196211     1.0313488807    -0.1103092578
    4      C       3.6246597164    -0.3067251787     0.5265011668
    5      C       2.5002396768     0.4349852945    -0.0239391421
    6      C       1.2245603300    -0.0871559039     0.1780464918
    7      C       0.0939624680     0.5552331949    -0.3193730888
    8      N      -1.1747205707     0.0109592156    -0.1157089232
    9      C      -2.2775820450     0.8522184648     0.0838343495
   10      C      -3.5191539639     0.5282264265    -0.4616032962
   11      C      -4.6059626446     1.3559306085    -0.2568456167
   12      C      -4.4729068535     2.5188341194     0.4839757335
   13      C      -3.2406625648     2.8465868494     1.0252520469
   14      C      -2.1499175326     2.0208933860     0.8335582366
   15      C      -1.3530748830    -1.3788064410    -0.1089494895
   16      C      -0.6391434583    -2.1890557268    -0.9912788626
   17      C      -0.8183526378    -3.5586947108    -0.9777978655
   18      C      -1.7141229122    -4.1408905703    -0.0959349520
   19      C      -2.4300294264    -3.3397204269     0.7784268810
   20      C      -2.2513687065    -1.9699214507     0.7786997873
   21      C       0.2520932128     1.7501362978    -1.0242751227
   22      C       1.5148723793     2.2761855126    -1.2154210907
   23      C       2.6380031803     1.6328132420    -0.7279315268
   24      H       3.3866372160    -1.2196482202     1.0535445788
   25      H       1.1056838796    -1.0064641032     0.7328792729
   26      H      -3.6228841018    -0.3737123679    -1.0469049617
   27      H      -5.5618397952     1.0945866484    -0.6863972213
   28      H      -5.3235750768     3.1648540140     0.6388917493
   29      H      -3.1289191563     3.7480661410     1.6095329707
   30      H      -1.1926424548     2.2732276482     1.2659215138
   31      H       0.0515250836    -1.7366169090    -1.6879354350
   32      H      -0.2607330571    -4.1746935608    -1.6678666600
   33      H      -1.8538916533    -5.2111119345    -0.0909140700
   34      H      -3.1276400352    -3.7851173563     1.4722867343
   35      H      -2.8042841904    -1.3478178269     1.4672246575
   36      H      -0.6160081276     2.2544138678    -1.4212734145
   37      H       1.6267458592     3.1995844279    -1.7637357617
   38      H       3.6104753361     2.0626789515    -0.8970112258
 ----------------------------------------------------------------
 Molecular Point Group                 C1    NOp =  1
 Largest Abelian Subgroup              C1    NOp =  1
 Nuclear Repulsion Energy =        1764.07837965 hartrees
 There are       80 alpha and       80 beta electrons
 Requested basis set is 6-31G(d)
 There are 122 shells and 375 basis functions

 Total QAlloc Memory Limit   4000 MB
 Mega-Array Size       188 MB
 MEM_STATIC part       192 MB
 A cutoff of  1.0D-08 yielded   3746 shell pairs
 There are     37078 function pairs
 Smallest overlap matrix eigenvalue = 3.73E-04

 Scale SEOQF with 1.000000e-02/1.000000e-01/1.000000e-01

 Standard Electronic Orientation quadrupole field applied
 Nucleus-field energy     =     0.0000000418 hartrees
 Guess from superposition of atomic densities
 Warning:  Energy on first SCF cycle will be non-variational
 SAD guess density has 160.000000 electrons

 -----------------------------------------------------------------------
  General SCF calculation program by
  Eric Jon Sundstrom, Paul Horn, Yuezhi Mao, Dmitri Zuev, Alec White,
  David Stuck, Shaama M.S., Shane Yost, Joonho Lee, David Small,
  Daniel Levine, Susi Lehtola, Hugh Burton, Evgeny Epifanovsky,
  Bang C. Huynh
 -----------------------------------------------------------------------
 Exchange:     0.2000 Hartree-Fock + 0.0800 Slater + 0.7200 B88
 Correlation:  0.1900 VWN1RPA + 0.8100 LYP
 Using SG-1 standard quadrature grid
 A restricted SCF calculation will be
 performed using DIIS
 SCF converges when DIIS error is below 1.0e-05
 ---------------------------------------
  Cycle       Energy         DIIS error
 ---------------------------------------
    1   -1031.4157276803      4.26e-02  
    2   -1025.2077826534      4.35e-03  
    3   -1024.9662380451      5.76e-03  
    4   -1025.5250724095      1.39e-03  
    5   -1025.5568969060      4.76e-04  
    6   -1025.5601741204      2.50e-04  
    7   -1025.5613482038      4.97e-05  
    8   -1025.5613834991      2.30e-05  
    9   -1025.5613932349      5.45e-06  Convergence criterion met
 ---------------------------------------
 SCF time:   CPU 117.66s  wall 118.00s 
 SCF   energy in the final basis set =    -1025.5613932349
 Total energy in the final basis set =    -1025.5613932349
 
 --------------------------------------------------------------
 
                    Orbital Energies (a.u.)
 --------------------------------------------------------------
 
 Alpha MOs
 -- Occupied --
-24.7431 -24.7325 -14.3660 -10.3554 -10.2282 -10.2267 -10.2264 -10.2051
-10.2013 -10.1878 -10.1875 -10.1874 -10.1871 -10.1871 -10.1854 -10.1844
-10.1842 -10.1841 -10.1840 -10.1834 -10.1823 -10.1820 -10.1809  -1.2840
 -1.2228  -0.9801  -0.8662  -0.8598  -0.8435  -0.8045  -0.7638  -0.7599
 -0.7462  -0.7456  -0.7385  -0.7091  -0.6471  -0.6343  -0.6275  -0.6053
 -0.6039  -0.6009  -0.5773  -0.5701  -0.5443  -0.5374  -0.5176  -0.5067
 -0.5000  -0.4841  -0.4796  -0.4680  -0.4569  -0.4495  -0.4437  -0.4395
 -0.4357  -0.4336  -0.4264  -0.4241  -0.4229  -0.4193  -0.4069  -0.3834
 -0.3748  -0.3703  -0.3693  -0.3594  -0.3564  -0.3531  -0.3443  -0.3416
 -0.3209  -0.2943  -0.2599  -0.2593  -0.2537  -0.2479  -0.2224  -0.1822
 -- Virtual --
 -0.0281  -0.0116  -0.0100   0.0011   0.0103   0.0334   0.0728   0.0888
  0.0965   0.0992   0.1173   0.1426   0.1458   0.1509   0.1554   0.1584
  0.1617   0.1641   0.1687   0.1747   0.1862   0.1891   0.1912   0.1929
  0.1957   0.1990   0.2039   0.2221   0.2641   0.2704   0.2881   0.2969
  0.2997   0.3087   0.3091   0.3122   0.3262   0.3358   0.3550   0.3665
  0.3843   0.3918   0.4103   0.4400   0.4578   0.4693   0.4863   0.5003
  0.5115   0.5177   0.5224   0.5312   0.5380   0.5437   0.5454   0.5498
  0.5617   0.5639   0.5701   0.5728   0.5771   0.5831   0.5872   0.5914
  0.5964   0.5978   0.6005   0.6059   0.6104   0.6145   0.6165   0.6176
  0.6210   0.6246   0.6277   0.6329   0.6342   0.6382   0.6416   0.6506
  0.6573   0.6680   0.6852   0.6896   0.6940   0.7016   0.7295   0.7813
  0.8023   0.8067   0.8123   0.8144   0.8232   0.8390   0.8402   0.8417
  0.8442   0.8474   0.8483   0.8492   0.8527   0.8669   0.8751   0.8774
  0.8876   0.8999   0.9088   0.9226   0.9257   0.9458   0.9626   0.9646
  0.9656   0.9837   0.9883   1.0105   1.0168   1.0212   1.0365   1.0477
  1.0542   1.0824   1.1025   1.1210   1.1222   1.1468   1.1508   1.1618
  1.1628   1.1674   1.1832   1.1877   1.1928   1.1974   1.1983   1.2108
  1.2268   1.2374   1.2550   1.2736   1.3006   1.3054   1.3082   1.3189
  1.3452   1.3651   1.4042   1.4076   1.4212   1.4285   1.4369   1.4421
  1.4500   1.4564   1.4609   1.4700   1.4762   1.4807   1.4905   1.4944
  1.4982   1.4988   1.5128   1.5151   1.5194   1.5208   1.5477   1.5918
  1.6519   1.7100   1.7124   1.7243   1.7430   1.7708   1.7833   1.7840
  1.7862   1.8000   1.8182   1.8382   1.8397   1.8418   1.8467   1.8605
  1.8741   1.8938   1.8980   1.9047   1.9207   1.9252   1.9337   1.9527
  1.9571   1.9634   1.9692   1.9800   1.9914   2.0002   2.0008   2.0145
  2.0306   2.0341   2.0522   2.0846   2.0942   2.1057   2.1303   2.1517
  2.1534   2.1579   2.1609   2.1671   2.1722   2.1777   2.1854   2.1972
  2.2125   2.2255   2.2504   2.2601   2.2724   2.2965   2.3030   2.3111
  2.3197   2.3282   2.3299   2.3394   2.3630   2.3797   2.4384   2.4422
  2.5087   2.5225   2.5245   2.5601   2.5626   2.5804   2.6024   2.6096
  2.6222   2.6331   2.6407   2.6678   2.6724   2.6897   2.6963   2.7197
  2.7364   2.7442   2.7602   2.7613   2.7687   2.7728   2.7768   2.7977
  2.8300   2.8479   2.8935   2.9137   2.9368   2.9515   3.0097   3.0269
  3.0579   3.1584   3.2341   3.2645   3.3376   3.4469   3.4727   3.4864
  4.0807   4.1050   4.1068   4.1175   4.1309   4.1323   4.1346   4.1846
  4.1873   4.2028   4.2668   4.3116   4.3388   4.3603   4.3861   4.3986
  4.4322   4.4846   4.7114   4.7191   4.7651   4.8251   5.3024
 --------------------------------------------------------------
 
          Ground-State Mulliken Net Atomic Charges

     Atom                 Charge (a.u.)
  ----------------------------------------
      1 F                    -0.249285
      2 C                     0.541423
      3 F                    -0.234160
      4 C                    -0.295999
      5 C                     0.194297
      6 C                    -0.253874
      7 C                     0.296344
      8 N                    -0.654224
      9 C                     0.279350
     10 C                    -0.165916
     11 C                    -0.138498
     12 C                    -0.127736
     13 C                    -0.138411
     14 C                    -0.166223
     15 C                     0.280487
     16 C                    -0.167257
     17 C                    -0.138460
     18 C                    -0.128132
     19 C                    -0.138298
     20 C                    -0.166816
     21 C                    -0.170574
     22 C                    -0.139288
     23 C                    -0.196733
     24 H                     0.160926
     25 H                     0.146338
     26 H                     0.146512
     27 H                     0.130177
     28 H                     0.125085
     29 H                     0.130266
     30 H                     0.146522
     31 H                     0.146712
     32 H                     0.130424
     33 H                     0.125214
     34 H                     0.130317
     35 H                     0.146724
     36 H                     0.147097
     37 H                     0.131577
     38 H                     0.134093
  ----------------------------------------
  Sum of atomic charges =     0.000000

 -----------------------------------------------------------------
                    Cartesian Multipole Moments
 -----------------------------------------------------------------
    Charge (ESU x 10^10)
                 0.0000
    Dipole Moment (Debye)
         X      -1.3643      Y      -0.1892      Z      -0.0109
       Tot       1.3774
    Quadrupole Moments (Debye-Ang)
        XX    -130.7278     XY      -0.5611     YY    -120.4441
        XZ      -2.1357     YZ       0.2422     ZZ    -129.3007
    Octopole Moments (Debye-Ang^2)
       XXX       0.8831    XXY      11.1175    XYY      15.7085
       YYY      -9.1112    XXZ      -2.0249    XYZ      -1.0337
       YYZ       2.8347    XZZ      30.9292    YZZ       0.6163
       ZZZ       7.5426
    Hexadecapole Moments (Debye-Ang^3)
      XXXX   -7173.0926   XXXY     -39.7977   XXYY   -1652.4045
      XYYY      30.4910   YYYY   -3030.8342   XXXZ      12.4490
      XXYZ      -8.0786   XYYZ     -55.4218   YYYZ      19.0722
      XXZZ   -1280.4354   XYZZ       9.5943   YYZZ    -606.1742
      XZZZ      41.0022   YZZZ      -7.1408   ZZZZ    -550.7471
 -----------------------------------------------------------------
Archival summary:
1\1\nia0005.scinet.local\SP\ProcedureUnspecified\6-31G*\212015\rhickman\MonFeb708:13:432022MonFeb708:13:432022\0\\#,ProcedureUnspecified,6-31G*,\\0,1\N\C,1,1.39545\C,2,1.39224,1,120.41\H,3,1.08032,2,119.128,1,-0.666921,0\C,3,1.39312,2,121.257,1,179.493,0\C,5,1.3962,3,119.013,2,0.6571,0\H,6,1.0766,5,120.721,3,179.792,0\C,6,1.38311,5,119.78,3,-0.248053,0\H,8,1.07974,6,119.516,5,-179.68,0\C,8,1.38126,6,121.094,5,-0.339463,0\H,10,1.07958,8,120.421,6,-179.152,0\C,1,1.40118,2,120.218,3,-34.9593,0\C,12,1.39437,1,120.368,2,142.253,0\H,13,1.08018,12,119.432,1,-0.447446,0\C,13,1.3814,12,120.236,1,179.674,0\H,15,1.08004,13,119.494,12,179.893,0\C,15,1.38525,13,120.45,12,0.4121,0\H,17,1.07932,15,120.24,13,179.789,0\C,17,1.38529,15,119.533,13,-0.271383,0\H,19,1.08009,17,120.057,15,-179.579,0\C,19,1.38138,17,120.451,15,-0.158338,0\H,21,1.0803,19,120.297,17,-179.282,0\C,1,1.40137,2,120.141,3,145.012,0\C,23,1.39426,1,120.371,2,142.163,0\H,24,1.0802,23,119.44,1,-0.490627,0\C,24,1.38137,23,120.224,1,179.644,0\H,26,1.08005,24,119.496,23,179.883,0\C,26,1.38523,24,120.446,23,0.405537,0\H,28,1.07934,26,120.233,24,179.783,0\C,28,1.38522,26,119.541,24,-0.251229,0\H,30,1.08006,28,120.06,26,-179.612,0\C,30,1.38139,28,120.448,26,-0.17928,0\H,32,1.08027,30,120.301,28,-179.322,0\C,5,1.45514,3,117.496,2,-179.728,0\H,34,1.08067,5,116.416,3,0.247581,0\C,34,1.32432,5,128.549,3,-179.914,0\F,36,1.32766,34,128.257,5,0.10482,0\F,36,1.33297,34,123.018,5,-179.87,0\\\@

 Total job time:  118.42s(wall), 118.05s(cpu) 
 Mon Feb  7 08:13:43 2022

        *************************************************************
        *                                                           *
        *  Thank you very much for using Q-Chem.  Have a nice day.  *
        *                                                           *
        *************************************************************


