19
 energy: -28.271603332701 gnorm: 0.000065334913 xtb: 6.4.1 (23d549d)
C        -2.91958693630000    0.77476345500000   -0.16950741500000
C        -2.32630553610000   -0.37186363180000    0.13749660970000
C        -0.90273761800000   -0.62505099780000    0.08161615690000
N        -0.46148847540000   -1.86728018390000   -0.04964538030000
N         0.87414419270000   -1.77973612010000   -0.11197294930000
C         1.31365786120000   -0.50350836190000   -0.02311974130000
N         2.65497644060000   -0.20579038430000    0.06965113760000
C         0.18408458490000    0.29800411420000    0.10743661890000
C         0.12361108990000    1.73208354160000    0.30239336470000
C         0.93481823060000    2.62417629970000   -0.25326337330000
H        -3.98915397840000    0.88508194420000   -0.10946118010000
H        -2.36779169960000    1.63461796240000   -0.50889871900000
H        -2.91229047500000   -1.23518664150000    0.42325972760000
H         1.42915286520000   -2.61646029910000   -0.18904590440000
H         3.27700347440000   -0.81172092740000   -0.44295861880000
H         2.86452934720000    0.77426752830000   -0.03333802930000
H        -0.66523679880000    2.06807306380000    0.96436116500000
H         1.70369200770000    2.35002124960000   -0.95810522010000
H         0.84028533570000    3.67681436900000   -0.04916013470000
