53
 energy: -62.359801066798 gnorm: 0.000058683619 xtb: 6.4.1 (23d549d)
C         5.62791410370000    4.05926830310000    0.89387067750000
C         4.30455995250000    4.19631258580000    0.85471833110000
C         3.39424765350000    3.29032233030000    0.20775705730000
C         3.63952637310000    2.12646737340000   -0.47380905170000
C         2.48707970350000    1.50319285500000   -0.98762964050000
C         2.56073765440000    0.20157216350000   -1.72370261840000
C         2.61015755580000   -0.99030666520000   -0.75645455130000
C         1.30597068740000   -1.16712822800000    0.01515682450000
C         1.35516719040000   -2.36971834410000    0.95448979010000
C         0.10599568350000   -2.49909631860000    1.82692844130000
C        -1.16322736930000   -2.78348399270000    1.02638952750000
C        -2.36459602530000   -3.02718677300000    1.93705108910000
C        -3.63774682480000   -3.38664523640000    1.16968035420000
C        -4.17420863270000   -2.23289657780000    0.32337217950000
C        -5.56131573670000   -2.50772325240000   -0.25826055960000
C        -5.57054170140000   -3.61957202080000   -1.30536690940000
C        -6.94578961470000   -3.77933510590000   -1.94222832590000
C         1.33285973820000    2.19820474220000   -0.69019221110000
C        -0.02130589180000    1.87293433300000   -1.04376763230000
C        -1.09731815950000    2.54304650190000   -0.63947121420000
S         1.69150965710000    3.63389139760000    0.22753135020000
H         6.24975740840000    4.77878249190000    1.39628933460000
H         6.13257261640000    3.23059416260000    0.42833362120000
H         3.83760696690000    5.04674478120000    1.33475125270000
H         4.62706301070000    1.72278667340000   -0.61050683980000
H         3.46834244530000    0.19832275920000   -2.33209883330000
H         1.70748391760000    0.08821269440000   -2.39388208030000
H         3.43333070980000   -0.84559967270000   -0.05285962620000
H         2.81554258810000   -1.89824110180000   -1.32869316140000
H         0.49036408850000   -1.29634183440000   -0.69810459420000
H         1.10220980890000   -0.26587014730000    0.59722781590000
H         2.22775302740000   -2.27248390580000    1.60555285740000
H         1.48221660080000   -3.28310912920000    0.36790181380000
H        -0.02904135360000   -1.57856320590000    2.39978958920000
H         0.26213707100000   -3.31168964850000    2.54127234600000
H        -1.00375738310000   -3.66371719960000    0.39853462990000
H        -1.37493031810000   -1.93654531210000    0.37425257840000
H        -2.54566559340000   -2.13444202250000    2.54061204080000
H        -2.12675653340000   -3.84472203390000    2.62278626110000
H        -4.40732166650000   -3.67859880450000    1.88886347040000
H        -3.43427320480000   -4.24913226340000    0.53250765910000
H        -3.48447066640000   -2.02323054260000   -0.49613979290000
H        -4.22895434390000   -1.33811777930000    0.94881410960000
H        -5.93331519060000   -1.59016631740000   -0.72182866390000
H        -6.24819924970000   -2.76867610130000    0.55054173120000
H        -5.28029287840000   -4.56400999340000   -0.84243914070000
H        -4.83674329570000   -3.38851451210000   -2.08128942660000
H        -7.68959945190000   -4.02200657270000   -1.18623557940000
H        -6.93623055870000   -4.57652756550000   -2.68213473310000
H        -7.24866312040000   -2.85768073560000   -2.43493858880000
H        -0.13654679350000    1.00917916040000   -1.68459144160000
H        -1.01601983080000    3.40284258930000    0.00495382940000
H        -2.08897863900000    2.25260581580000   -0.93793956020000
