25
 energy: -42.111048127453 gnorm: 0.000053530197 xtb: 6.4.1 (23d549d)
C        -3.95617421800000   -2.21339227470000   -0.13759456030000
C        -2.63536333860000   -2.30559588500000   -0.02282479640000
C        -1.75538296770000   -1.16673794100000    0.00594273810000
N        -0.46166440150000   -1.21014336620000    0.11722409790000
C        -0.03599515990000    0.08574145530000    0.10108534800000
C         1.39840328970000    0.38867973790000    0.20964873770000
O         1.88342006300000    1.49777526430000    0.19010111630000
O         2.10699010230000   -0.72837265360000    0.34566461570000
C         3.52217649250000   -0.58905366580000    0.44486177980000
C         4.16591105020000   -0.45918390530000   -0.92890552690000
C        -1.15052810250000    0.91033533880000   -0.02713747690000
C        -1.41401016070000    2.32243608120000   -0.10650228100000
C        -0.50757840070000    3.29504337680000   -0.07302357520000
O        -2.22980765210000    0.09633803940000   -0.08506839520000
H        -4.58183687020000   -3.08796529180000   -0.15526541620000
H        -4.44761279800000   -1.25824110320000   -0.21707274460000
H        -2.12496912110000   -3.25306003430000    0.05809355380000
H         3.85916977640000   -1.49495480380000    0.95260633940000
H         3.75367728860000    0.29114475520000    1.05471129000000
H         3.89034804480000   -1.30635080770000   -1.55211353290000
H         5.24676561640000   -0.42907105860000   -0.82453590670000
H         3.83249924120000    0.45714418250000   -1.40987649260000
H        -2.46925260550000    2.54739944630000   -0.20182959800000
H         0.54280216260000    3.08502514750000    0.02081335430000
H        -0.80810619610000    4.32646237650000   -0.13999204440000
