
Running Job 1 of 1 fragments/B028/conf-2/spe_input.inp
qchem fragments/B028/conf-2/spe_input.inp_162450.0 /gpfs/fs0/scratch/a/aspuru/rhickman/descriptor_computation/qchem162450/ 0
/scinet/niagara/software/commercial/qc52/exe/qcprog.exe_s fragments/B028/conf-2/spe_input.inp_162450.0 /gpfs/fs0/scratch/a/aspuru/rhickman/descriptor_computation/qchem162450/
                  Welcome to Q-Chem
     A Quantum Leap Into The Future Of Chemistry


 Q-Chem 5.2, Q-Chem, Inc., Pleasanton, CA (2019)

 License issued to: SRG Alan Aspuru-Guzik, University of Toronto

 Yihan Shao,  Zhengting Gan,  E. Epifanovsky,  A. T. B. Gilbert,  M. Wormit,  
 J. Kussmann,  A. W. Lange,  A. Behn,  Jia Deng,  Xintian Feng,  D. Ghosh,  
 M. Goldey,  P. R. Horn,  L. D. Jacobson,  I. Kaliman,  T. Kus,  A. Landau,  
 Jie Liu,  E. I. Proynov,  R. M. Richard,  R. P. Steele,  E. J. Sundstrom,  
 H. L. Woodcock III,  P. M. Zimmerman,  D. Zuev,  B. Albrecht,  E. Alguire,  
 S. A. Baeppler,  D. Barton,  Z. Benda,  Y. A. Bernard,  E. J. Berquist,  
 K. B. Bravaya,  H. Burton,  D. Casanova,  Chun-Min Chang,  Yunqing Chen,  
 A. Chien,  K. D. Closser,  M. P. Coons,  S. Coriani,  S. Dasgupta,  
 A. L. Dempwolff,  M. Diedenhofen,  Hainam Do,  R. G. Edgar,  Po-Tung Fang,  
 S. Faraji,  S. Fatehi,  Qingguo Feng,  K. D. Fenk,  J. Fosso-Tande,  
 J. Gayvert,  Qinghui Ge,  A. Ghysels,  G. Gidofalvi,  J. Gomes,  
 J. Gonthier,  A. Gunina,  D. Hait,  M. W. D. Hanson-Heine,  
 P. H. P. Harbach,  A. W. Hauser,  M. F. Herbst,  J. E. Herr,  
 E. G. Hohenstein,  Z. C. Holden,  Kerwin Hui,  B. C. Huynh,  T.-C. Jagau,  
 Hyunjun Ji,  B. Kaduk,  K. Khistyaev,  Jaehoon Kim,  P. Klunzinger,  K. Koh,  
 D. Kosenkov,  L. Koulias,  T. Kowalczyk,  C. M. Krauter,  A. Kunitsa,  
 Ka Un Lao,  A. Laurent,  K. V. Lawler,  Joonho Lee,  D. Lefrancois,  
 S. Lehtola,  D. S. Levine,  Yi-Pei Li,  You-Sheng Lin,  Fenglai Liu,  
 E. Livshits,  A. Luenser,  P. Manohar,  E. Mansoor,  S. F. Manzer,  
 Shan-Ping Mao,  Yuezhi Mao,  N. Mardirossian,  A. V. Marenich,  
 T. Markovich,  L. A. Martinez-Martinez,  S. A. Maurer,  N. J. Mayhall,  
 S. C. McKenzie,  J.-M. Mewes,  P. Morgante,  A. F. Morrison,  
 J. W. Mullinax,  K. Nanda,  T. S. Nguyen-Beck,  R. Olivares-Amaya,  
 J. A. Parkhill,  Zheng Pei,  T. M. Perrine,  F. Plasser,  P. Pokhilko,  
 S. Prager,  A. Prociuk,  E. Ramos,  D. R. Rehn,  F. Rob,  M. Scheurer,  
 M. Schneider,  N. Sergueev,  S. M. Sharada,  S. Sharma,  D. W. Small,  
 T. Stauch,  T. Stein,  Yu-Chuan Su,  A. J. W. Thom,  A. Tkatchenko,  
 T. Tsuchimochi,  N. M. Tubman,  L. Vogt,  M. L. Vidal,  O. Vydrov,  
 M. A. Watson,  J. Wenzel,  M. de Wergifosse,  T. A. Wesolowski,  A. White,  
 J. Witte,  A. Yamada,  Jun Yang,  K. Yao,  S. Yeganeh,  S. R. Yost,  
 Zhi-Qiang You,  A. Zech,  Igor Ying Zhang,  Xing Zhang,  Yan Zhao,  
 Ying Zhu,  B. R. Brooks,  G. K. L. Chan,  C. J. Cramer,  M. S. Gordon,  
 W. J. Hehre,  A. Klamt,  M. W. Schmidt,  C. D. Sherrill,  D. G. Truhlar,  
 A. Aspuru-Guzik,  R. Baer,  A. T. Bell,  N. A. Besley,  Jeng-Da Chai,  
 A. E. DePrince, III,  R. A. DiStasio Jr.,  A. Dreuw,  B. D. Dunietz,  
 T. R. Furlani,  Chao-Ping Hsu,  Yousung Jung,  Jing Kong,  D. S. Lambrecht,  
 WanZhen Liang,  C. Ochsenfeld,  V. A. Rassolov,  L. V. Slipchenko,  
 J. E. Subotnik,  T. Van Voorhis,  J. M. Herbert,  A. I. Krylov,  
 P. M. W. Gill,  M. Head-Gordon

 Contributors to earlier versions of Q-Chem not listed above: 
 R. D. Adamson,  B. Austin,  J. Baker,  G. J. O. Beran,  K. Brandhorst,  
 S. T. Brown,  E. F. C. Byrd,  A. K. Chakraborty,  C.-L. Cheng,  
 Siu Hung Chien,  D. M. Chipman,  D. L. Crittenden,  H. Dachsel,  
 R. J. Doerksen,  A. D. Dutoi,  L. Fusti-Molnar,  W. A. Goddard III,  
 A. Golubeva-Zadorozhnaya,  S. R. Gwaltney,  G. Hawkins,  A. Heyden,  
 S. Hirata,  G. Kedziora,  F. J. Keil,  C. Kelley,  Jihan Kim,  R. A. King,  
 R. Z. Khaliullin,  P. P. Korambath,  W. Kurlancheek,  A. M. Lee,  M. S. Lee,  
 S. V. Levchenko,  Ching Yeh Lin,  D. Liotard,  R. C. Lochan,  I. Lotan,  
 P. E. Maslen,  N. Nair,  D. P. O'Neill,  D. Neuhauser,  E. Neuscamman,  
 C. M. Oana,  R. Olson,  B. Peters,  R. Peverati,  P. A. Pieniazek,  
 Y. M. Rhee,  J. Ritchie,  M. A. Rohrdanz,  E. Rosta,  N. J. Russ,  
 H. F. Schaefer III,  N. E. Schultz,  N. Shenvi,  A. C. Simmonett,  A. Sodt,  
 D. Stuck,  K. S. Thanthiriwatte,  V. Vanovschi,  Tao Wang,  A. Warshel,  
 C. F. Williams,  Q. Wu,  X. Xu,  W. Zhang

 Please cite Q-Chem as follows:
 Y. Shao et al., Mol. Phys. 113, 184-215 (2015)
 DOI: 10.1080/00268976.2014.952696

 Q-Chem 5.2.1 for Intel X86 EM64T Linux

 Parts of Q-Chem use Armadillo 8.300.2 (Tropical Shenanigans).
 http://arma.sourceforge.net/

 Q-Chem begins on Mon Feb  7 18:13:31 2022  

Host: 
0

     Scratch files written to /gpfs/fs0/scratch/a/aspuru/rhickman/descriptor_computation/qchem162450//
 Jul1719 |scratch|qcdevops|jenkins|workspace|build_RNUM -1
Processing $rem in /scinet/niagara/software/commercial/qc52/config/preferences:
	 MEM_TOTAL  4000 
NAlpha2: 80
NElect   80
Mult     1

Checking the input file for inconsistencies... 	...done.

--------------------------------------------------------------
User input:
--------------------------------------------------------------
$molecule
0 1
C         4.17158173680000   -1.33212830900000    0.00272812110000
C         3.53448812720000   -0.16877553080000   -0.00164365950000
C         2.09432282800000   -0.02673570990000    0.00010180050000
C         1.08300279410000   -1.02482986500000    0.00518106480000
C        -0.08769827150000   -0.30879044510000    0.00336051280000
C        -1.45313880980000   -0.76261680670000    0.00553900180000
C        -2.51779822610000    0.03142497480000    0.00002770770000
F        -2.52350007390000    1.34882223750000   -0.00789015170000
F        -3.76336441170000   -0.42380822210000    0.00172888110000
O         0.20393792250000    1.00637787950000   -0.00207572730000
N         1.53902163620000    1.16593900980000   -0.00403073820000
H         5.24631998450000   -1.38297498500000    0.00076768850000
H         3.64918011050000   -2.27400534710000    0.00838946830000
H         4.07128101560000    0.76864366510000   -0.00720303030000
H         1.19721427280000   -2.08728585140000    0.00932525870000
H        -1.61446369770000   -1.82787899440000    0.01155937430000
$end

$rem
BASIS = 6-31G*
GUI = 2
METHOD = B3LYP
PRINT_ORBITALS false
MOLDEN_FORMAT false
--------------------------------------------------------------
 ----------------------------------------------------------------
             Standard Nuclear Orientation (Angstroms)
    I     Atom           X                Y                Z
 ----------------------------------------------------------------
    1      C       4.1723815801    -0.8273065689    -0.0020129516
    2      C       3.4103480572     0.2583276608    -0.0014691258
    3      C       1.9633120353     0.2399640692     0.0005248703
    4      C       1.0687705609    -0.8640202113     0.0009847167
    5      C      -0.1740394688    -0.2820588963     0.0019887538
    6      C      -1.4808090875    -0.8843413179     0.0018331024
    7      C      -2.6268707911    -0.2130965092    -0.0004855876
    8      F      -2.7784613923     1.0955846387    -0.0026521885
    9      F      -3.8143479772    -0.8034970875    -0.0010937551
   10      O      -0.0298742287     1.0573309580     0.0023707549
   11      N       1.2793198226     1.3637982485     0.0014570850
   12      H       5.2461380917    -0.7587875683    -0.0039180192
   13      H       3.7575232011    -1.8212675299    -0.0005993615
   14      H       3.8400029404     1.2494518608    -0.0027964922
   15      H       1.2999635541    -1.9072956985     0.0005189406
   16      H      -1.5231457067    -1.9609337861     0.0031601205
 ----------------------------------------------------------------
 Molecular Point Group                 C1    NOp =  1
 Largest Abelian Subgroup              C1    NOp =  1
 Nuclear Repulsion Energy =         570.36626244 hartrees
 There are       40 alpha and       40 beta electrons
 Requested basis set is 6-31G(d)
 There are 54 shells and 175 basis functions

 Total QAlloc Memory Limit   4000 MB
 Mega-Array Size       188 MB
 MEM_STATIC part       192 MB
 A cutoff of  1.0D-08 yielded   1018 shell pairs
 There are     11484 function pairs
 Smallest overlap matrix eigenvalue = 9.39E-04

 Scale SEOQF with 1.000000e-01/1.000000e-01/1.000000e+00

 Standard Electronic Orientation quadrupole field applied
 Nucleus-field energy     =     0.0000000237 hartrees
 Guess from superposition of atomic densities
 Warning:  Energy on first SCF cycle will be non-variational
 SAD guess density has 80.000000 electrons

 -----------------------------------------------------------------------
  General SCF calculation program by
  Eric Jon Sundstrom, Paul Horn, Yuezhi Mao, Dmitri Zuev, Alec White,
  David Stuck, Shaama M.S., Shane Yost, Joonho Lee, David Small,
  Daniel Levine, Susi Lehtola, Hugh Burton, Evgeny Epifanovsky,
  Bang C. Huynh
 -----------------------------------------------------------------------
 Exchange:     0.2000 Hartree-Fock + 0.0800 Slater + 0.7200 B88
 Correlation:  0.1900 VWN1RPA + 0.8100 LYP
 Using SG-1 standard quadrature grid
 A restricted SCF calculation will be
 performed using DIIS
 SCF converges when DIIS error is below 1.0e-05
 ---------------------------------------
  Cycle       Energy         DIIS error
 ---------------------------------------
    1    -601.8203318472      6.09e-02  
    2    -599.1392196803      6.68e-03  
    3    -598.9358597683      9.82e-03  
    4    -599.2896272833      2.16e-03  
    5    -599.3050054276      7.84e-04  
    6    -599.3065658500      3.31e-04  
    7    -599.3069205896      8.67e-05  
    8    -599.3069460762      3.57e-05  
    9    -599.3069501275      1.10e-05  
   10    -599.3069505491      2.77e-06  Convergence criterion met
 ---------------------------------------
 SCF time:   CPU 17.39s  wall 18.00s 
 SCF   energy in the final basis set =     -599.3069505491
 Total energy in the final basis set =     -599.3069505491
 
 --------------------------------------------------------------
 
                    Orbital Energies (a.u.)
 --------------------------------------------------------------
 
 Alpha MOs
 -- Occupied --
-24.7542 -24.7511 -19.2427 -14.3765 -10.3775 -10.2704 -10.2287 -10.2241
-10.2036 -10.1993 -10.1950  -1.3013  -1.2403  -1.1662  -0.8839  -0.8409
 -0.7834  -0.7731  -0.6642  -0.6514  -0.6090  -0.5887  -0.5849  -0.5345
 -0.5325  -0.5020  -0.4831  -0.4710  -0.4577  -0.4535  -0.4422  -0.4321
 -0.4264  -0.3946  -0.3696  -0.3442  -0.3214  -0.2978  -0.2557  -0.2346
 -- Virtual --
 -0.0426  -0.0222   0.0779   0.0814   0.1059   0.1176   0.1208   0.1421
  0.1439   0.1747   0.1800   0.1912   0.2157   0.2914   0.3151   0.3461
  0.3690   0.4103   0.4243   0.4451   0.4815   0.4891   0.5069   0.5144
  0.5385   0.5501   0.5549   0.5629   0.5791   0.6074   0.6277   0.6340
  0.6429   0.6582   0.6769   0.7160   0.7252   0.7680   0.7992   0.8068
  0.8075   0.8305   0.8590   0.8695   0.8854   0.9112   0.9523   0.9615
  0.9791   0.9884   1.0342   1.0836   1.0937   1.1182   1.1248   1.1495
  1.1839   1.1977   1.2065   1.2452   1.2804   1.3091   1.3282   1.3532
  1.3563   1.3860   1.4164   1.4240   1.4450   1.4631   1.4726   1.4917
  1.5068   1.5507   1.6105   1.6656   1.6767   1.7095   1.7723   1.7863
  1.8085   1.8246   1.8407   1.8497   1.8900   1.9171   1.9335   1.9622
  1.9807   1.9853   1.9969   2.0306   2.0491   2.0763   2.1110   2.1185
  2.1806   2.1831   2.1988   2.2353   2.2741   2.3032   2.3521   2.3746
  2.4335   2.4562   2.5164   2.5217   2.5487   2.6121   2.6258   2.6611
  2.6642   2.6875   2.7448   2.8373   2.8764   2.9512   3.0101   3.0576
  3.0991   3.1532   3.2207   3.3171   3.8089   4.0541   4.0817   4.1212
  4.1771   4.2486   4.3671   4.4746   4.6399   4.7829   5.2649
 --------------------------------------------------------------
 
          Ground-State Mulliken Net Atomic Charges

     Atom                 Charge (a.u.)
  ----------------------------------------
      1 C                    -0.347879
      2 C                    -0.081135
      3 C                     0.299747
      4 C                    -0.301589
      5 C                     0.433704
      6 C                    -0.315887
      7 C                     0.580371
      8 F                    -0.214074
      9 F                    -0.237493
     10 O                    -0.376806
     11 N                    -0.221880
     12 H                     0.154687
     13 H                     0.144947
     14 H                     0.153775
     15 H                     0.148751
     16 H                     0.180761
  ----------------------------------------
  Sum of atomic charges =     0.000000

 -----------------------------------------------------------------
                    Cartesian Multipole Moments
 -----------------------------------------------------------------
    Charge (ESU x 10^10)
                 0.0000
    Dipole Moment (Debye)
         X       0.5409      Y      -3.2229      Z      -0.0013
       Tot       3.2680
    Quadrupole Moments (Debye-Ang)
        XX     -54.9474     XY      -1.5688     YY     -60.0260
        XZ      -0.0137     YZ      -0.0083     ZZ     -61.8174
    Octopole Moments (Debye-Ang^2)
       XXX      -6.9167    XXY      -0.3413    XYY     -15.6019
       YYY      -8.9049    XXZ      -0.0487    XYZ      -0.0077
       YYZ      -0.0066    XZZ     -24.3897    YZZ       4.8440
       ZZZ      -0.0230
    Hexadecapole Moments (Debye-Ang^3)
      XXXX   -2177.6689   XXXY     -14.0198   XXYY    -427.6722
      XYYY     -10.3756   YYYY    -324.3343   XXXZ      -0.2383
      XXYZ      -0.0185   XYYZ      -0.0001   YYYZ      -0.0470
      XXZZ    -415.3926   XYZZ       1.6515   YYZZ     -67.2875
      XZZZ       0.1341   YZZZ      -0.0040   ZZZZ     -55.8478
 -----------------------------------------------------------------
Archival summary:
1\1\nia1977.scinet.local\SP\ProcedureUnspecified\6-31G*\21175\rhickman\MonFeb718:13:492022MonFeb718:13:492022\0\\#,ProcedureUnspecified,6-31G*,\\0,1\O\N,1,1.34459\C,2,1.31562,1,108.151\C,1,1.34713,2,109.318,3,-0.000904164,0\C,4,1.37232,1,108.949,2,0.00820865,0\H,5,1.06859,4,127.587,1,179.996,0\C,4,1.43889,1,120.888,2,-179.956,0\H,7,1.07743,4,116.997,1,-179.902,0\C,7,1.32817,4,124.898,1,0.132858,0\F,9,1.31743,7,126.965,4,-0.0195655,0\F,9,1.32615,7,123.207,4,179.972,0\C,3,1.44715,2,120.599,1,179.96,0\H,12,1.08025,3,114.164,2,-0.0422239,0\C,12,1.32638,3,124.339,2,179.974,0\H,14,1.07594,12,121.415,3,179.975,0\H,14,1.07706,12,122.279,3,-0.0242211,0\\\@

 Total job time:  17.59s(wall), 17.52s(cpu) 
 Mon Feb  7 18:13:49 2022

        *************************************************************
        *                                                           *
        *  Thank you very much for using Q-Chem.  Have a nice day.  *
        *                                                           *
        *************************************************************


