47
 energy: -92.145348251762 gnorm: 0.000041083112 xtb: 6.4.1 (23d549d)
C         1.63101481400000   -0.57117391580000   -3.36564819980000
O         1.06749461240000   -1.10255021970000   -2.17603662790000
C         1.93465539710000   -1.66597928870000   -1.31949612070000
C         1.24697929660000   -2.22362032000000   -0.12330320950000
C         0.24005003630000   -1.53327025210000    0.56425087370000
N        -0.09807251260000   -0.21226151390000    0.23287666730000
C         0.90649590950000    0.70844247190000   -0.04922237760000
C         2.14795026840000    0.60408683600000    0.58143345580000
C         3.15310061760000    1.50185873180000    0.27000785680000
C         4.48372687460000    1.41414261210000    0.96054325380000
F         4.66192549390000    0.27723610700000    1.64272685620000
F         5.51380419430000    1.52099402610000    0.10666785290000
F         4.64427926270000    2.41479846470000    1.85510703490000
C         2.94949614300000    2.52300632880000   -0.64982645790000
C         1.71253229340000    2.63125574390000   -1.26293872270000
C         0.70145773760000    1.73700404380000   -0.97198854870000
C        -1.44548846110000    0.15554479500000    0.19802760110000
C        -1.85721931440000    1.41588651580000    0.63376147290000
C        -3.19058865540000    1.75902596040000    0.60344604400000
C        -4.16170420850000    0.86317956690000    0.14607580590000
C        -5.54775435820000    1.29418513920000    0.14655304500000
C        -6.62362048990000    0.61608537430000   -0.22767060760000
F        -6.68727140020000   -0.62547755730000   -0.69536708100000
F        -7.85476664090000    1.12232129030000   -0.18028632370000
C        -3.74167610200000   -0.39836667240000   -0.28448309890000
C        -2.40835578290000   -0.74480351240000   -0.25984243150000
C        -0.40231088880000   -2.16300005850000    1.62910042190000
C        -0.04325542610000   -3.44064594190000    2.01209602670000
C         0.98287693550000   -4.10539249720000    1.35820581980000
C         1.62620320230000   -3.49303261310000    0.29944442740000
O         3.11552689210000   -1.75382709590000   -1.53310748260000
H         0.79645907910000   -0.21610523640000   -3.96427833860000
H         2.18706398890000   -1.34450452820000   -3.89917086520000
H         2.31014771850000    0.25004594310000   -3.12684432280000
H         2.32653006540000   -0.17525399290000    1.30631630680000
H         3.74730934700000    3.21096848180000   -0.87985567540000
H         1.54048397940000    3.41403869170000   -1.98560157170000
H        -0.25149722100000    1.81425919800000   -1.47279936280000
H        -1.12583421930000    2.11816238070000    1.00516326130000
H        -3.49229102730000    2.73637119430000    0.95008021390000
H        -5.74017106610000    2.29780570260000    0.49777678870000
H        -4.45758487580000   -1.11533409500000   -0.65045436380000
H        -2.09734967190000   -1.71909936990000   -0.60526429030000
H        -1.17959215620000   -1.63264302860000    2.15913233400000
H        -0.55303301840000   -3.91113027410000    2.83914446560000
H         1.27821957700000   -5.09407490610000    1.67223644150000
H         2.42401298180000   -3.99236031330000   -0.22874936330000
