30
 energy: -48.972292401073 gnorm: 0.000033816436 xtb: 6.4.1 (23d549d)
C         3.97534623020000    0.70886430640000    0.78296840390000
N         3.11230796440000    1.12966140690000   -0.30319371920000
C         1.73528751330000    1.01589285440000   -0.11249993830000
C         0.89150472290000    2.10830634800000   -0.13003096200000
C        -0.47940078240000    1.96190471200000    0.06873113970000
C        -1.05185961230000    0.72988945170000    0.29279377780000
C        -2.50573729410000    0.67623838410000    0.46187129770000
C        -3.33519711710000   -0.13309384410000   -0.17319746240000
F        -3.02455457640000   -1.06523791370000   -1.06820552030000
F        -4.66070047300000   -0.11198434800000   -0.01118814730000
C         1.16939366910000   -0.28523434260000    0.05995406460000
C        -0.22057804400000   -0.42345815570000    0.32420445700000
C        -0.71896137970000   -1.70758039400000    0.63085846600000
C         0.07910003540000   -2.81471771590000    0.56342291940000
C         1.41386923770000   -2.69267097310000    0.15819072300000
C         1.94701446270000   -1.45511544220000   -0.07240704330000
C         3.61100847070000    2.31283022190000   -0.96292917260000
H         3.48618682400000   -0.04838902360000    1.38903901150000
H         4.22771591110000    1.55803457980000    1.43324286970000
H         4.90462310100000    0.30114470650000    0.37893740900000
H         1.28476950450000    3.10198971540000   -0.27546477280000
H        -1.10668266810000    2.84183688750000    0.04589234610000
H        -2.96080128350000    1.41872000210000    1.10184247330000
H        -1.74857846210000   -1.81290750370000    0.93494654000000
H        -0.32196355320000   -3.78884881960000    0.80086546830000
H         2.02055880810000   -3.57823281690000    0.03889712860000
H         2.97240363070000   -1.36254853380000   -0.39293515600000
H         4.62428437850000    2.10443725840000   -1.30998400720000
H         3.65215965120000    3.19261571320000   -0.30516167330000
H         2.98882403240000    2.53888406790000   -1.82650831330000
