
Running Job 1 of 1 tidas/B035/conf-0/spe_input.inp
qchem tidas/B035/conf-0/spe_input.inp_150901.0 /home/a/aspuru/seifridm/acdc_laser/descriptor_computation/qchem150901/ 0
/gpfs/fs1/scinet/niagara/software/commercial/qc54/exe/qcprog.exe_s tidas/B035/conf-0/spe_input.inp_150901.0 /home/a/aspuru/seifridm/acdc_laser/descriptor_computation/qchem150901/
                  Welcome to Q-Chem
     A Quantum Leap Into The Future Of Chemistry


 Q-Chem 5.4, Q-Chem, Inc., Pleasanton, CA (2021)

 License issued to: SRG Alan Aspuru-Guzik, University of Toronto

 E. Epifanovsky,  A. T. B. Gilbert,  Xintian Feng,  Joonho Lee,  Yuezhi Mao,  
 N. Mardirossian,  P. Pokhilko,  A. White,  M. Wormit,  M. P. Coons,  
 A. L. Dempwolff,  Zhengting Gan,  D. Hait,  P. R. Horn,  L. D. Jacobson,  
 I. Kaliman,  J. Kussmann,  A. W. Lange,  Ka Un Lao,  D. S. Levine,  Jie Liu,  
 S. C. McKenzie,  A. F. Morrison,  K. Nanda,  F. Plasser,  D. R. Rehn,  
 M. L. Vidal,  Zhi-Qiang You,  Ying Zhu,  B. Alam,  B. Albrecht,  
 A. Aldossary,  E. Alguire,  J. H. Andersen,  D. Barton,  K. Begam,  A. Behn,  
 Y. A. Bernard,  E. J. Berquist,  H. Burton,  A. Carreras,  K. Carter-Fenk,  
 Romit Chakraborty,  A. D. Chien,  K. D. Closser,  V. Cofer-Shabica,  
 S. Dasgupta,  Jia Deng,  M. de Wergifosse,  M. Diedenhofen,  Hainam Do,  
 S. Ehlert,  Po-Tung Fang,  S. Fatehi,  Qingguo Feng,  T. Friedhoff,  
 J. Gayvert,  Qinghui Ge,  G. Gidofalvi,  M. Goldey,  J. Gomes,  
 C. Gonzalez-Espinoza,  S. Gulania,  A. Gunina,  M. W. D. Hanson-Heine,  
 P. H. P. Harbach,  A. W. Hauser,  M. F. Herbst,  M. Hernandez Vera,  
 M. Hodecker,  Z. C. Holden,  S. Houck,  Xunkun Huang,  Kerwin Hui,  
 B. C. Huynh,  M. Ivanov,  Hyunjun Ji,  Hanjie Jiang,  B. Kaduk,  S. Kaehler,  
 K. Khistyaev,  Jaehoon Kim,  P. Klunzinger,  Z. Koczor-Benda,  
 Joong Hoon Koh,  D. Kosenkov,  L. Koulias,  T. Kowalczyk,  C. M. Krauter,  
 K. Kue,  A. Kunitsa,  T. Kus,  A. Landau,  K. V. Lawler,  D. Lefrancois,  
 S. Lehtola,  Rain Li,  Yi-Pei Li,  Jiashu Liang,  M. Liebenthal,  
 Hung-Hsuan Lin,  You-Sheng Lin,  Fenglai Liu,  Kuan-Yu Liu,  
 M. Loipersberger,  A. Luenser,  A. Manjanath,  P. Manohar,  E. Mansoor,  
 S. F. Manzer,  Shan-Ping Mao,  A. V. Marenich,  T. Markovich,  S. Mason,  
 S. A. Maurer,  P. F. McLaughlin,  M. F. S. J. Menger,  J.-M. Mewes,  
 S. A. Mewes,  P. Morgante,  J. W. Mullinax,  K. J. Oosterbaan,  G. Paran,  
 Alexander C. Paul,  Suranjan K. Paul,  F. Pavosevic,  Zheng Pei,  S. Prager,  
 E. I. Proynov,  E. Ramos,  B. Rana,  A. E. Rask,  A. Rettig,  R. M. Richard,  
 F. Rob,  E. Rossomme,  T. Scheele,  M. Scheurer,  M. Schneider,  
 N. Sergueev,  S. M. Sharada,  W. Skomorowski,  D. W. Small,  C. J. Stein,  
 Yu-Chuan Su,  E. J. Sundstrom,  Zhen Tao,  J. Thirman,  T. Tsuchimochi,  
 N. M. Tubman,  S. P. Veccham,  O. Vydrov,  J. Wenzel,  J. Witte,  A. Yamada,  
 Kun Yao,  S. Yeganeh,  S. R. Yost,  A. Zech,  Igor Ying Zhang,  Xing Zhang,  
 Yu Zhang,  D. Zuev,  A. Aspuru-Guzik,  A. T. Bell,  N. A. Besley,  
 K. B. Bravaya,  B. R. Brooks,  D. Casanova,  Jeng-Da Chai,  S. Coriani,  
 C. J. Cramer,  A. E. DePrince, III,  R. A. DiStasio Jr.,  A. Dreuw,  
 B. D. Dunietz,  T. R. Furlani,  W. A. Goddard III,  S. Grimme,  
 S. Hammes-Schiffer,  T. Head-Gordon,  W. J. Hehre,  Chao-Ping Hsu,  
 T.-C. Jagau,  Yousung Jung,  A. Klamt,  Jing Kong,  D. S. Lambrecht,  
 WanZhen Liang,  N. J. Mayhall,  C. W. McCurdy,  J. B. Neaton,  T. Neudecker,  
 C. Ochsenfeld,  J. A. Parkhill,  R. Peverati,  V. A. Rassolov,  Yihan Shao,  
 L. V. Slipchenko,  R. P. Steele,  J. E. Subotnik,  A. J. W. Thom,  
 A. Tkatchenko,  D. G. Truhlar,  T. Van Voorhis,  T. A. Wesolowski,  
 K. B. Whaley,  H. L. Woodcock III,  P. M. Zimmerman,  S. Faraji,  
 P. M. W. Gill,  M. Head-Gordon,  J. M. Herbert,  A. I. Krylov

 Additional authors since Version 5.4.0: 
 Chandrima Chakravarty,  L. Cunha,  R. Kang,  Yongbin Kim,  S. Kotaru,  
 Shaozhi Li,  Xiangyuan Li,  F. Matz,  A. Molle,  V. Parravicini,  
 Haisheng Ren,  Hengyuan Shen,  Yingli Su,  Hung-Yi Tsai,  C. Utku,  
 Fang Wang,  Jeff Yang,  F. Zeller

 Contributors to earlier versions of Q-Chem not listed above: 
 R. D. Adamson,  B. Austin,  R. Baer,  J. Baker,  G. J. O. Beran,  
 K. Brandhorst,  S. T. Brown,  E. F. C. Byrd,  Arup K. Chakraborty,  
 G. K. L. Chan,  Chun-Min Chang,  Yunqing Chen,  C.-L. Cheng,  
 Siu Hung Chien,  D. M. Chipman,  D. L. Crittenden,  H. Dachsel,  
 R. J. Doerksen,  A. D. Dutoi,  R. G. Edgar,  J. Fosso-Tande,  
 L. Fusti-Molnar,  D. Ghosh,  A. Ghysels,  A. Golubeva-Zadorozhnaya,  
 J. Gonthier,  M. S. Gordon,  S. R. Gwaltney,  G. Hawkins,  J. E. Herr,  
 A. Heyden,  S. Hirata,  E. G. Hohenstein,  G. Kedziora,  F. J. Keil,  
 C. Kelley,  Jihan Kim,  R. A. King,  R. Z. Khaliullin,  P. P. Korambath,  
 W. Kurlancheek,  A. Laurent,  A. M. Lee,  M. S. Lee,  S. V. Levchenko,  
 Ching Yeh Lin,  D. Liotard,  E. Livshits,  R. C. Lochan,  I. Lotan,  
 L. A. Martinez-Martinez,  P. E. Maslen,  N. Nair,  D. P. O'Neill,  
 D. Neuhauser,  E. Neuscamman,  C. M. Oana,  R. Olivares-Amaya,  R. Olson,  
 T. M. Perrine,  B. Peters,  P. A. Pieniazek,  A. Prociuk,  Y. M. Rhee,  
 J. Ritchie,  M. A. Rohrdanz,  E. Rosta,  N. J. Russ,  H. F. Schaefer III,  
 M. W. Schmidt,  N. E. Schultz,  S. Sharma,  N. Shenvi,  C. D. Sherrill,  
 A. C. Simmonett,  A. Sodt,  T. Stein,  D. Stuck,  K. S. Thanthiriwatte,  
 V. Vanovschi,  L. Vogt,  Tao Wang,  A. Warshel,  M. A. Watson,  
 C. F. Williams,  Q. Wu,  X. Xu,  Jun Yang,  W. Zhang,  Yan Zhao

   Please cite Q-Chem as follows:
  "Software for the frontiers of quantum chemistry:
   An overview of developments in the Q-Chem 5 package"
   J. Chem. Phys. 155, 084801 (2021)
   https://doi.org/10.1063/5.0055522 (open access)

 Q-Chem 5.4.2 for Intel X86 EM64T Linux

 Parts of Q-Chem use Armadillo 9.900.5 (Nocturnal Misbehaviour).
 http://arma.sourceforge.net/

 Q-Chem begins on Fri Aug 12 13:13:02 2022  

 Host: 
0

     Scratch files written to /home/a/aspuru/seifridm/acdc_laser/descriptor_computation/qchem150901//
 Dec1321 |scratch|qcdevops|jenkins|workspace|build_RNUM 6959   
 Processing $rem in /gpfs/fs1/scinet/niagara/software/commercial/qc54/config/preferences:
 Processing $rem in /home/a/aspuru/seifridm/.qchemrc:

 Checking the input file for inconsistencies... 	...done.

--------------------------------------------------------------
User input:
--------------------------------------------------------------
$molecule
0 1
C           -2.21467966200000       -2.66507145580000        0.52619402180000
C           -1.03795858190000       -2.77985171360000       -0.07646630930000
C            0.01626506470000       -1.76968054600000       -0.10525529460000
C            1.34109384500000       -2.20219981780000       -0.00866335210000
C            2.39009439690000       -1.31585251060000        0.04291756900000
C            2.14743674130000        0.05926098980000       -0.02276096430000
O            3.24162311890000        0.86096781420000        0.03809084590000
C            3.06108197710000        2.25674563250000       -0.01072383350000
C            0.84188905910000        0.50681327480000       -0.16050321560000
C           -0.22628670000000       -0.39031350450000       -0.20019800750000
C           -1.57983607240000        0.10333387490000       -0.42868196950000
C           -2.06417337140000        1.27947244260000       -0.06573080700000
F           -1.44489699420000        2.23241284810000        0.62759603370000
F           -3.30687185080000        1.68178292240000       -0.33440454550000
H           -2.92792726670000       -3.47179654210000        0.52211295260000
H           -2.49871426040000       -1.78069362750000        1.07100202660000
H           -0.77639960920000       -3.71810521420000       -0.55128942580000
H            1.53942868040000       -3.26261379570000        0.04808029130000
H            3.40946321830000       -1.65598845370000        0.13032701790000
H            4.05686326860000        2.68513694810000        0.09069443190000
H            2.42896993750000        2.60927794080000        0.81000857780000
H            2.62811171540000        2.57226029070000       -0.96536886960000
H            0.63716454480000        1.55936921700000       -0.26080847980000
H           -2.26277454970000       -0.55144601930000       -0.94984861470000
$end

$rem
BASIS = 6-31G*
GUI = 2
METHOD = B3LYP
PRINT_ORBITALS false
MOLDEN_FORMAT false
$end
--------------------------------------------------------------
 ----------------------------------------------------------------
             Standard Nuclear Orientation (Angstroms)
    I     Atom           X                Y                Z
 ----------------------------------------------------------------
    1      C       2.6189828482     2.2749435965     0.5127835027
    2      C       1.4692206213     2.5533770754    -0.0885218290
    3      C       0.2820290530     1.7032457793    -0.1112165445
    4      C      -0.9676371188     2.3201272625    -0.0144388839
    5      C      -2.1318792146     1.5921494763     0.0426836464
    6      C      -2.0873304279     0.1962461283    -0.0173396422
    7      O      -3.2842456717    -0.4414891093     0.0487532480
    8      C      -3.3040833323    -1.8489455542     0.0057821219
    9      C      -0.8589765014    -0.4329437664    -0.1551708209
   10      C       0.3258044359     0.3030265833    -0.2004848555
   11      C       1.5949209784    -0.3789885126    -0.4289299698
   12      C       1.9079175805    -1.6105350131    -0.0615821233
   13      F       1.1609664941    -2.4628813073     0.6368952386
   14      F       3.0802071705    -2.1865469375    -0.3304430362
   15      H       3.4396670582     2.9720412335     0.5040383537
   16      H       2.7755883879     1.3614195426     1.0610207382
   17      H       1.3426745891     3.5173219146    -0.5670468214
   18      H      -1.0130737905     3.3981922329     0.0379613174
   19      H      -3.0923431439     2.0741193500     0.1302036263
   20      H      -4.3504304527    -2.1309848337     0.1106473348
   21      H      -2.7267221797    -2.2843834450     0.8270581369
   22      H      -2.9224521752    -2.2267456443    -0.9481490307
   23      H      -0.8061929558    -1.5043186067    -0.2511767229
   24      H       2.3628735198     0.1698870013    -0.9540403488
 ----------------------------------------------------------------
 Molecular Point Group                 C1    NOp =  1
 Largest Abelian Subgroup              C1    NOp =  1
 Nuclear Repulsion Energy =         857.21808991 hartrees
 There are       51 alpha and       51 beta electrons
 Requested basis set is 6-31G(d)
 There are 76 shells and 230 basis functions

 Total QAlloc Memory Limit   8000 MB
 Mega-Array Size       188 MB
 MEM_STATIC part       192 MB
 A cutoff of  1.0D-08 yielded   1916 shell pairs
 There are     18740 function pairs
 Smallest overlap matrix eigenvalue = 3.47E-04

 Scale SEOQF with 1.000000e-01/1.000000e-01/1.000000e+00

 Standard Electronic Orientation quadrupole field applied
 Nucleus-field energy     =     0.0000000275 hartrees
 Guess from superposition of atomic densities
 Warning:  Energy on first SCF cycle will be non-variational
 SAD guess density has 102.000000 electrons

 -----------------------------------------------------------------------
  General SCF calculation program by
  Eric Jon Sundstrom, Paul Horn, Yuezhi Mao, Dmitri Zuev, Alec White,
  David Stuck, Shaama M.S., Shane Yost, Joonho Lee, David Small,
  Daniel Levine, Susi Lehtola, Hugh Burton, Evgeny Epifanovsky,
  Bang C. Huynh
 -----------------------------------------------------------------------
 Exchange:     0.2000 Hartree-Fock + 0.0800 Slater + 0.7200 B88
 Correlation:  0.1900 VWN1RPA + 0.8100 LYP
 Using SG-1 standard quadrature grid
 A restricted SCF calculation will be
 performed using DIIS
 SCF converges when DIIS error is below 1.0e-05
 ---------------------------------------
  Cycle       Energy         DIIS error
 ---------------------------------------
    1    -703.1441962961      5.26e-02  
    2    -699.8048201830      5.82e-03  
    3    -699.6202969304      7.81e-03  
    4    -700.0150784269      1.60e-03  
    5    -700.0309629040      5.48e-04  
    6    -700.0324916309      2.65e-04  
    7    -700.0329654105      5.54e-05  
    8    -700.0329836404      1.83e-05  
    9    -700.0329860498      4.46e-06  Convergence criterion met
 ---------------------------------------
 SCF time:   CPU 48.54s  wall 49.00s 
 SCF   energy in the final basis set =     -700.0329860498
 Total energy in the final basis set =     -700.0329860498
 
 --------------------------------------------------------------
 
                    Orbital Energies (a.u.)
 --------------------------------------------------------------
 
 Alpha MOs
 -- Occupied --
-24.7383 -24.7301 -19.1802 -10.3508 -10.2474 -10.2410 -10.2066 -10.1969
-10.1912 -10.1906 -10.1889 -10.1852 -10.1830 -10.1787  -1.2794  -1.2192
 -1.0709  -0.8700  -0.8058  -0.7914  -0.7416  -0.7395  -0.6955  -0.6473
 -0.6114  -0.6050  -0.5758  -0.5553  -0.5390  -0.5168  -0.5118  -0.4917
 -0.4746  -0.4729  -0.4465  -0.4391  -0.4381  -0.4331  -0.4296  -0.4177
 -0.4025  -0.3921  -0.3818  -0.3638  -0.3485  -0.3350  -0.3278  -0.2923
 -0.2702  -0.2334  -0.2051
 -- Virtual --
 -0.0270  -0.0090   0.0452   0.0659   0.0982   0.1051   0.1200   0.1286
  0.1371   0.1478   0.1568   0.1620   0.1653   0.1704   0.1893   0.1898
  0.2071   0.2238   0.2644   0.2816   0.3204   0.3235   0.3513   0.3583
  0.3716   0.4186   0.4357   0.4712   0.4894   0.5052   0.5145   0.5204
  0.5350   0.5387   0.5512   0.5632   0.5704   0.5769   0.5837   0.5925
  0.5972   0.6145   0.6174   0.6306   0.6334   0.6488   0.6694   0.6862
  0.7042   0.7092   0.7428   0.7513   0.7819   0.7900   0.8293   0.8426
  0.8456   0.8579   0.8662   0.8686   0.8741   0.8867   0.9131   0.9356
  0.9420   0.9583   0.9662   0.9755   0.9925   1.0097   1.0339   1.0513
  1.0672   1.1002   1.1017   1.1172   1.1231   1.1626   1.1830   1.1934
  1.2105   1.2163   1.2391   1.2698   1.2956   1.3123   1.3570   1.3697
  1.3728   1.3923   1.4064   1.4218   1.4400   1.4603   1.4647   1.4830
  1.5128   1.5279   1.5540   1.5644   1.6084   1.6553   1.6955   1.7061
  1.7327   1.7688   1.7842   1.8104   1.8116   1.8446   1.8526   1.8561
  1.8814   1.8842   1.8960   1.9325   1.9516   1.9758   1.9828   1.9966
  2.0010   2.0254   2.0307   2.0452   2.0722   2.0897   2.1097   2.1152
  2.1383   2.1466   2.1691   2.2068   2.2233   2.2450   2.2616   2.2694
  2.2991   2.3220   2.3462   2.3645   2.3912   2.4220   2.4827   2.5271
  2.5440   2.5534   2.5697   2.6160   2.6348   2.6703   2.6909   2.7066
  2.7300   2.7649   2.7972   2.8327   2.8841   2.9756   2.9925   3.0289
  3.0680   3.1214   3.2089   3.3205   3.4809   4.0570   4.1004   4.1151
  4.1202   4.1584   4.2099   4.2620   4.2916   4.3765   4.4253   4.5439
  4.7713   4.8311   5.2351
 --------------------------------------------------------------
 
          Ground-State Mulliken Net Atomic Charges

     Atom                 Charge (a.u.)
  ----------------------------------------
      1 C                    -0.345194
      2 C                    -0.138504
      3 C                     0.097547
      4 C                    -0.190853
      5 C                    -0.168635
      6 C                     0.384228
      7 O                    -0.505260
      8 C                    -0.216590
      9 C                    -0.268604
     10 C                     0.130051
     11 C                    -0.326706
     12 C                     0.546924
     13 F                    -0.242014
     14 F                    -0.250548
     15 H                     0.142425
     16 H                     0.156226
     17 H                     0.133170
     18 H                     0.130683
     19 H                     0.136936
     20 H                     0.170134
     21 H                     0.156009
     22 H                     0.152945
     23 H                     0.137367
     24 H                     0.178266
  ----------------------------------------
  Sum of atomic charges =     0.000000

 -----------------------------------------------------------------
                    Cartesian Multipole Moments
 -----------------------------------------------------------------
    Charge (ESU x 10^10)
                 0.0000
    Dipole Moment (Debye)
         X      -0.5785      Y      -0.1004      Z      -0.3370
       Tot       0.6770
    Quadrupole Moments (Debye-Ang)
        XX     -77.1102     XY       6.8972     YY     -73.0269
        XZ       0.1126     YZ      -0.3732     ZZ     -81.1958
    Octopole Moments (Debye-Ang^2)
       XXX      11.9196    XXY     -16.3882    XYY     -13.7478
       YYY     -24.6276    XXZ       3.9320    XYZ      -1.5271
       YYZ      -3.7518    XZZ       7.7999    YZZ     -18.8400
       ZZZ       3.2505
    Hexadecapole Moments (Debye-Ang^3)
      XXXX   -2139.6106   XXXY      30.1937   XXYY    -558.1274
      XYYY     -26.6843   YYYY   -1452.1948   XXXZ       6.0985
      XXYZ      -1.6077   XYYZ      -5.9174   YYYZ     -17.6539
      XXZZ    -386.1687   XYZZ     -21.3027   YYZZ    -284.7266
      XZZZ      -3.5418   YZZZ     -10.2759   ZZZZ    -127.7448
 -----------------------------------------------------------------
 Total job time:  49.96s(wall), 49.00s(cpu) 
 Fri Aug 12 13:13:52 2022

        *************************************************************
        *                                                           *
        *  Thank you very much for using Q-Chem.  Have a nice day.  *
        *                                                           *
        *************************************************************


