
Running Job 1 of 1 fragments/B019/conf-0/spe_input.inp
qchem fragments/B019/conf-0/spe_input.inp_158908.0 /gpfs/fs0/scratch/a/aspuru/rhickman/descriptor_computation/qchem158908/ 0
/scinet/niagara/software/commercial/qc52/exe/qcprog.exe_s fragments/B019/conf-0/spe_input.inp_158908.0 /gpfs/fs0/scratch/a/aspuru/rhickman/descriptor_computation/qchem158908/
                  Welcome to Q-Chem
     A Quantum Leap Into The Future Of Chemistry


 Q-Chem 5.2, Q-Chem, Inc., Pleasanton, CA (2019)

 License issued to: SRG Alan Aspuru-Guzik, University of Toronto

 Yihan Shao,  Zhengting Gan,  E. Epifanovsky,  A. T. B. Gilbert,  M. Wormit,  
 J. Kussmann,  A. W. Lange,  A. Behn,  Jia Deng,  Xintian Feng,  D. Ghosh,  
 M. Goldey,  P. R. Horn,  L. D. Jacobson,  I. Kaliman,  T. Kus,  A. Landau,  
 Jie Liu,  E. I. Proynov,  R. M. Richard,  R. P. Steele,  E. J. Sundstrom,  
 H. L. Woodcock III,  P. M. Zimmerman,  D. Zuev,  B. Albrecht,  E. Alguire,  
 S. A. Baeppler,  D. Barton,  Z. Benda,  Y. A. Bernard,  E. J. Berquist,  
 K. B. Bravaya,  H. Burton,  D. Casanova,  Chun-Min Chang,  Yunqing Chen,  
 A. Chien,  K. D. Closser,  M. P. Coons,  S. Coriani,  S. Dasgupta,  
 A. L. Dempwolff,  M. Diedenhofen,  Hainam Do,  R. G. Edgar,  Po-Tung Fang,  
 S. Faraji,  S. Fatehi,  Qingguo Feng,  K. D. Fenk,  J. Fosso-Tande,  
 J. Gayvert,  Qinghui Ge,  A. Ghysels,  G. Gidofalvi,  J. Gomes,  
 J. Gonthier,  A. Gunina,  D. Hait,  M. W. D. Hanson-Heine,  
 P. H. P. Harbach,  A. W. Hauser,  M. F. Herbst,  J. E. Herr,  
 E. G. Hohenstein,  Z. C. Holden,  Kerwin Hui,  B. C. Huynh,  T.-C. Jagau,  
 Hyunjun Ji,  B. Kaduk,  K. Khistyaev,  Jaehoon Kim,  P. Klunzinger,  K. Koh,  
 D. Kosenkov,  L. Koulias,  T. Kowalczyk,  C. M. Krauter,  A. Kunitsa,  
 Ka Un Lao,  A. Laurent,  K. V. Lawler,  Joonho Lee,  D. Lefrancois,  
 S. Lehtola,  D. S. Levine,  Yi-Pei Li,  You-Sheng Lin,  Fenglai Liu,  
 E. Livshits,  A. Luenser,  P. Manohar,  E. Mansoor,  S. F. Manzer,  
 Shan-Ping Mao,  Yuezhi Mao,  N. Mardirossian,  A. V. Marenich,  
 T. Markovich,  L. A. Martinez-Martinez,  S. A. Maurer,  N. J. Mayhall,  
 S. C. McKenzie,  J.-M. Mewes,  P. Morgante,  A. F. Morrison,  
 J. W. Mullinax,  K. Nanda,  T. S. Nguyen-Beck,  R. Olivares-Amaya,  
 J. A. Parkhill,  Zheng Pei,  T. M. Perrine,  F. Plasser,  P. Pokhilko,  
 S. Prager,  A. Prociuk,  E. Ramos,  D. R. Rehn,  F. Rob,  M. Scheurer,  
 M. Schneider,  N. Sergueev,  S. M. Sharada,  S. Sharma,  D. W. Small,  
 T. Stauch,  T. Stein,  Yu-Chuan Su,  A. J. W. Thom,  A. Tkatchenko,  
 T. Tsuchimochi,  N. M. Tubman,  L. Vogt,  M. L. Vidal,  O. Vydrov,  
 M. A. Watson,  J. Wenzel,  M. de Wergifosse,  T. A. Wesolowski,  A. White,  
 J. Witte,  A. Yamada,  Jun Yang,  K. Yao,  S. Yeganeh,  S. R. Yost,  
 Zhi-Qiang You,  A. Zech,  Igor Ying Zhang,  Xing Zhang,  Yan Zhao,  
 Ying Zhu,  B. R. Brooks,  G. K. L. Chan,  C. J. Cramer,  M. S. Gordon,  
 W. J. Hehre,  A. Klamt,  M. W. Schmidt,  C. D. Sherrill,  D. G. Truhlar,  
 A. Aspuru-Guzik,  R. Baer,  A. T. Bell,  N. A. Besley,  Jeng-Da Chai,  
 A. E. DePrince, III,  R. A. DiStasio Jr.,  A. Dreuw,  B. D. Dunietz,  
 T. R. Furlani,  Chao-Ping Hsu,  Yousung Jung,  Jing Kong,  D. S. Lambrecht,  
 WanZhen Liang,  C. Ochsenfeld,  V. A. Rassolov,  L. V. Slipchenko,  
 J. E. Subotnik,  T. Van Voorhis,  J. M. Herbert,  A. I. Krylov,  
 P. M. W. Gill,  M. Head-Gordon

 Contributors to earlier versions of Q-Chem not listed above: 
 R. D. Adamson,  B. Austin,  J. Baker,  G. J. O. Beran,  K. Brandhorst,  
 S. T. Brown,  E. F. C. Byrd,  A. K. Chakraborty,  C.-L. Cheng,  
 Siu Hung Chien,  D. M. Chipman,  D. L. Crittenden,  H. Dachsel,  
 R. J. Doerksen,  A. D. Dutoi,  L. Fusti-Molnar,  W. A. Goddard III,  
 A. Golubeva-Zadorozhnaya,  S. R. Gwaltney,  G. Hawkins,  A. Heyden,  
 S. Hirata,  G. Kedziora,  F. J. Keil,  C. Kelley,  Jihan Kim,  R. A. King,  
 R. Z. Khaliullin,  P. P. Korambath,  W. Kurlancheek,  A. M. Lee,  M. S. Lee,  
 S. V. Levchenko,  Ching Yeh Lin,  D. Liotard,  R. C. Lochan,  I. Lotan,  
 P. E. Maslen,  N. Nair,  D. P. O'Neill,  D. Neuhauser,  E. Neuscamman,  
 C. M. Oana,  R. Olson,  B. Peters,  R. Peverati,  P. A. Pieniazek,  
 Y. M. Rhee,  J. Ritchie,  M. A. Rohrdanz,  E. Rosta,  N. J. Russ,  
 H. F. Schaefer III,  N. E. Schultz,  N. Shenvi,  A. C. Simmonett,  A. Sodt,  
 D. Stuck,  K. S. Thanthiriwatte,  V. Vanovschi,  Tao Wang,  A. Warshel,  
 C. F. Williams,  Q. Wu,  X. Xu,  W. Zhang

 Please cite Q-Chem as follows:
 Y. Shao et al., Mol. Phys. 113, 184-215 (2015)
 DOI: 10.1080/00268976.2014.952696

 Q-Chem 5.2.1 for Intel X86 EM64T Linux

 Parts of Q-Chem use Armadillo 8.300.2 (Tropical Shenanigans).
 http://arma.sourceforge.net/

 Q-Chem begins on Mon Feb  7 18:04:06 2022  

Host: 
0

     Scratch files written to /gpfs/fs0/scratch/a/aspuru/rhickman/descriptor_computation/qchem158908//
 Jul1719 |scratch|qcdevops|jenkins|workspace|build_RNUM -1
Processing $rem in /scinet/niagara/software/commercial/qc52/config/preferences:
	 MEM_TOTAL  4000 
NAlpha2: 86
NElect   86
Mult     1

Checking the input file for inconsistencies... 	...done.

--------------------------------------------------------------
User input:
--------------------------------------------------------------
$molecule
0 1
C         4.55964081040000   -0.97350590030000   -0.01020513100000
C         3.80524743620000    0.11966669960000    0.00163510650000
C         2.35180751740000    0.16315239180000    0.00291539780000
C         1.53024498750000   -0.96724772240000    0.00636754170000
C         0.15790529970000   -0.82146420030000    0.00577475500000
C        -0.38501776040000    0.46696435450000    0.00172665980000
C        -1.80855983380000    0.76471280910000   -0.00054485490000
C        -2.82391572480000   -0.08523510290000   -0.00132395510000
F        -2.77212450880000   -1.41217283450000    0.00011137580000
F        -4.09781850860000    0.29374205350000   -0.00395764960000
N         0.39359695010000    1.55145416850000   -0.00026794540000
C         1.69749595360000    1.40152678040000    0.00055035470000
H         5.63400821510000   -0.91049730790000   -0.01114872060000
H         4.14670175270000   -1.96769848610000   -0.02026411230000
H         4.28209293100000    1.09216577630000    0.00991411860000
H         1.96074139320000   -1.95703972060000    0.01035764980000
H        -0.47783527720000   -1.69115191490000    0.00866452300000
H        -2.05219519740000    1.81640434470000   -0.00228283760000
H         2.26877753810000    2.32210013730000   -0.00119385910000
$end

$rem
BASIS = 6-31G*
GUI = 2
METHOD = B3LYP
PRINT_ORBITALS false
MOLDEN_FORMAT false
--------------------------------------------------------------
 ----------------------------------------------------------------
             Standard Nuclear Orientation (Angstroms)
    I     Atom           X                Y                Z
 ----------------------------------------------------------------
    1      C       4.4402239608    -0.9219849486    -0.0097460806
    2      C       3.6734368565     0.1625321646     0.0019181919
    3      C       2.2195960575     0.1894732090     0.0030816216
    4      C       1.4109518314    -0.9502037268     0.0065921060
    5      C       0.0370418806    -0.8200486565     0.0058776991
    6      C      -0.5205096170     0.4621168641     0.0016489305
    7      C      -1.9473480554     0.7436440968    -0.0007645236
    8      C      -2.9529646538    -0.1178048662    -0.0015304465
    9      F      -2.8860747017    -1.4440670441     0.0000517993
   10      F      -4.2310979503     0.2466488508    -0.0043032798
   11      N       0.2457119737     1.5553978291    -0.0004023852
   12      C       1.5512328178     1.4203202446     0.0005326991
   13      H       5.5138047348    -0.8467528909    -0.0106135358
   14      H       4.0386275877    -1.9208139748    -0.0197298536
   15      H       4.1391825661     1.1403962320     0.0101292645
   16      H       1.8526851054    -1.9350315971     0.0107220456
   17      H      -0.5887596161    -1.6969152535     0.0088120695
   18      H      -2.2029370610     1.7924944484    -0.0026345825
   19      H       2.1120002654     2.3473356861    -0.0012665728
 ----------------------------------------------------------------
 Molecular Point Group                 C1    NOp =  1
 Largest Abelian Subgroup              C1    NOp =  1
 Nuclear Repulsion Energy =         631.78775105 hartrees
 There are       43 alpha and       43 beta electrons
 Requested basis set is 6-31G(d)
 There are 62 shells and 194 basis functions

 Total QAlloc Memory Limit   4000 MB
 Mega-Array Size       188 MB
 MEM_STATIC part       192 MB
 A cutoff of  1.0D-08 yielded   1314 shell pairs
 There are     13752 function pairs
 Smallest overlap matrix eigenvalue = 6.28E-04

 Scale SEOQF with 1.000000e-02/1.000000e-01/1.000000e+00

 Standard Electronic Orientation quadrupole field applied
 Nucleus-field energy     =     0.0000000087 hartrees
 Guess from superposition of atomic densities
 Warning:  Energy on first SCF cycle will be non-variational
 SAD guess density has 86.000000 electrons

 -----------------------------------------------------------------------
  General SCF calculation program by
  Eric Jon Sundstrom, Paul Horn, Yuezhi Mao, Dmitri Zuev, Alec White,
  David Stuck, Shaama M.S., Shane Yost, Joonho Lee, David Small,
  Daniel Levine, Susi Lehtola, Hugh Burton, Evgeny Epifanovsky,
  Bang C. Huynh
 -----------------------------------------------------------------------
 Exchange:     0.2000 Hartree-Fock + 0.0800 Slater + 0.7200 B88
 Correlation:  0.1900 VWN1RPA + 0.8100 LYP
 Using SG-1 standard quadrature grid
 A restricted SCF calculation will be
 performed using DIIS
 SCF converges when DIIS error is below 1.0e-05
 ---------------------------------------
  Cycle       Energy         DIIS error
 ---------------------------------------
    1    -604.2759126670      5.76e-02  
    2    -601.3546075587      6.42e-03  
    3    -601.1572984705      9.13e-03  
    4    -601.5440299064      1.54e-03  
    5    -601.5541648419      5.51e-04  
    6    -601.5551619471      3.02e-04  
    7    -601.5556302116      5.61e-05  
    8    -601.5556422932      2.19e-05  
    9    -601.5556444414      6.44e-06  Convergence criterion met
 ---------------------------------------
 SCF time:   CPU 21.20s  wall 21.00s 
 SCF   energy in the final basis set =     -601.5556444414
 Total energy in the final basis set =     -601.5556444414
 
 --------------------------------------------------------------
 
                    Orbital Energies (a.u.)
 --------------------------------------------------------------
 
 Alpha MOs
 -- Occupied --
-24.7496 -24.7395 -14.3276 -10.3631 -10.2382 -10.2216 -10.2080 -10.2049
-10.2020 -10.1994 -10.1990 -10.1884  -1.2913  -1.2300  -0.9549  -0.8319
 -0.8143  -0.7787  -0.7390  -0.6650  -0.6399  -0.6276  -0.5807  -0.5705
 -0.5447  -0.5245  -0.5122  -0.4885  -0.4661  -0.4493  -0.4460  -0.4401
 -0.4258  -0.4140  -0.4136  -0.3997  -0.3897  -0.3572  -0.3353  -0.2897
 -0.2739  -0.2570  -0.2204
 -- Virtual --
 -0.0549  -0.0187   0.0196   0.0849   0.0978   0.1047   0.1127   0.1402
  0.1485   0.1679   0.1769   0.1930   0.2002   0.2232   0.2450   0.2854
  0.2998   0.3346   0.3602   0.3835   0.3905   0.4200   0.4559   0.4682
  0.4911   0.5098   0.5112   0.5383   0.5441   0.5575   0.5683   0.5789
  0.5823   0.5883   0.6155   0.6187   0.6248   0.6384   0.6574   0.6636
  0.6689   0.6897   0.7154   0.7572   0.7668   0.8141   0.8306   0.8368
  0.8543   0.8612   0.8790   0.8796   0.8801   0.9270   0.9434   0.9604
  0.9937   1.0083   1.0414   1.0522   1.0841   1.1204   1.1334   1.1552
  1.1734   1.1910   1.2068   1.2287   1.2528   1.2625   1.3023   1.3094
  1.3227   1.3441   1.3997   1.4149   1.4407   1.4571   1.4685   1.4755
  1.4840   1.5067   1.5188   1.5207   1.5966   1.6582   1.6675   1.7151
  1.7238   1.7687   1.7779   1.8007   1.8227   1.8322   1.8506   1.8582
  1.8847   1.9099   1.9638   1.9657   1.9754   1.9847   2.0202   2.0236
  2.0366   2.0558   2.1209   2.1364   2.1577   2.1685   2.1859   2.2258
  2.2378   2.2725   2.3140   2.3325   2.3576   2.3776   2.3837   2.4931
  2.5120   2.5370   2.5582   2.6233   2.6316   2.6503   2.6558   2.7116
  2.7331   2.8083   2.8398   2.8973   2.9126   2.9752   3.0510   3.1263
  3.1744   3.3397   3.4624   4.0493   4.0771   4.1083   4.1418   4.1892
  4.2166   4.2630   4.3260   4.5198   4.6810   4.7954   5.2883
 --------------------------------------------------------------
 
          Ground-State Mulliken Net Atomic Charges

     Atom                 Charge (a.u.)
  ----------------------------------------
      1 C                    -0.351598
      2 C                    -0.113806
      3 C                     0.147996
      4 C                    -0.150623
      5 C                    -0.180901
      6 C                     0.318568
      7 C                    -0.273327
      8 C                     0.553907
      9 F                    -0.235340
     10 F                    -0.242654
     11 N                    -0.490991
     12 C                    -0.014598
     13 H                     0.149567
     14 H                     0.143828
     15 H                     0.133761
     16 H                     0.140333
     17 H                     0.146256
     18 H                     0.179616
     19 H                     0.140004
  ----------------------------------------
  Sum of atomic charges =     0.000000

 -----------------------------------------------------------------
                    Cartesian Multipole Moments
 -----------------------------------------------------------------
    Charge (ESU x 10^10)
                 0.0000
    Dipole Moment (Debye)
         X       1.4128      Y      -1.1808      Z       0.0041
       Tot       1.8413
    Quadrupole Moments (Debye-Ang)
        XX     -62.7564     XY      -0.5918     YY     -65.0838
        XZ      -0.0062     YZ       0.0133     ZZ     -69.1560
    Octopole Moments (Debye-Ang^2)
       XXX     -11.5913    XXY       2.8656    XYY      -8.6166
       YYY     -16.1984    XXZ      -0.0352    XYZ       0.0975
       YYZ      -0.0148    XZZ     -26.9491    YZZ      -2.6772
       ZZZ      -0.0378
    Hexadecapole Moments (Debye-Ang^3)
      XXXX   -2761.7358   XXXY      18.6639   XXYY    -513.0059
      XYYY      18.8622   YYYY    -446.3419   XXXZ      -0.2674
      XXYZ       0.4225   XYYZ      -0.0353   YYYZ       0.0053
      XXZZ    -510.3074   XYZZ      13.5888   YYZZ     -90.0777
      XZZZ       0.2275   YZZZ      -0.0024   ZZZZ     -65.0926
 -----------------------------------------------------------------
Archival summary:
1\1\nia1977.scinet.local\SP\ProcedureUnspecified\6-31G*\2197\rhickman\MonFeb718:04:272022MonFeb718:04:272022\0\\#,ProcedureUnspecified,6-31G*,\\0,1\F\C,1,1.32795\C,2,1.32414,1,127.697\H,3,1.07954,2,116.889,1,179.984,0\F,2,1.32908,1,108.803,3,179.992,0\C,3,1.45435,2,128.254,1,0.0169408,0\N,6,1.33505,3,113.863,2,179.894,0\C,7,1.31249,6,119.117,3,-179.953,0\H,8,1.08343,7,115.263,6,179.999,0\C,6,1.39815,3,124.664,2,-0.11218,0\H,10,1.07728,6,120.984,3,-0.0737512,0\C,10,1.38006,6,118.914,3,179.942,0\H,12,1.07937,10,119.57,6,179.946,0\C,12,1.39742,10,119.945,6,-0.00160737,0\C,14,1.45409,12,124.296,10,-179.926,0\H,15,1.08315,14,114.405,12,-179.359,0\C,15,1.32826,14,126.322,12,0.733753,0\H,17,1.07621,15,121.252,14,179.938,0\H,17,1.07659,15,122.838,14,-0.00534202,0\\\@

 Total job time:  21.43s(wall), 21.35s(cpu) 
 Mon Feb  7 18:04:27 2022

        *************************************************************
        *                                                           *
        *  Thank you very much for using Q-Chem.  Have a nice day.  *
        *                                                           *
        *************************************************************


