26
 energy: -41.234204140499 gnorm: 0.000045985681 xtb: 6.5.0 (unknown)
C           -4.40362713500000        0.79821382580000        0.60237920160000
C           -3.67479534330000       -0.08575068500000       -0.06452157030000
C           -2.21315522620000       -0.14394590560000       -0.11712178890000
C           -1.62559613530000       -1.40860106320000       -0.06054351980000
C           -0.25800179130000       -1.60522743330000       -0.06764180090000
C            0.29648683550000       -2.99529542270000        0.02831115510000
C            0.57635808020000       -0.47875407310000       -0.15662990580000
C            2.02267030460000       -0.64873392070000       -0.17834700890000
C            2.94575676940000        0.25777925030000        0.10251212470000
F            2.77134304460000        1.51760398340000        0.48798755910000
F            4.25522950180000        0.00417551740000        0.04858592280000
C           -0.00874032290000        0.78149068350000       -0.25569042270000
C           -1.38108535840000        0.97571226980000       -0.23660323990000
C           -1.90869013600000        2.37058729100000       -0.38701677700000
H           -5.47943471290000        0.74429296970000        0.61072616290000
H           -3.96351193860000        1.58546684590000        1.18852409420000
H           -4.17412956420000       -0.89332510920000       -0.58784240860000
H           -2.27537646380000       -2.27025682130000        0.01194807750000
H           -0.50895730910000       -3.71502525970000        0.14984493180000
H            0.96978876390000       -3.08692296890000        0.87924109780000
H            0.84944607730000       -3.25537153530000       -0.87430245460000
H            2.40829398140000       -1.62178097150000       -0.44084658400000
H            0.62408963870000        1.64812185800000       -0.36645940630000
H           -1.22199972380000        2.96714554290000       -0.98397208210000
H           -2.00114570100000        2.85054380060000        0.58713959570000
H           -2.88620159690000        2.37118577180000       -0.86293341490000
