
Running Job 1 of 1 fragments/C091/conf-0/spe_input.inp
qchem fragments/C091/conf-0/spe_input.inp_142507.0 /gpfs/fs0/scratch/a/aspuru/rhickman/descriptor_computation/qchem142507/ 0
/scinet/niagara/software/commercial/qc52/exe/qcprog.exe_s fragments/C091/conf-0/spe_input.inp_142507.0 /gpfs/fs0/scratch/a/aspuru/rhickman/descriptor_computation/qchem142507/
                  Welcome to Q-Chem
     A Quantum Leap Into The Future Of Chemistry


 Q-Chem 5.2, Q-Chem, Inc., Pleasanton, CA (2019)

 License issued to: SRG Alan Aspuru-Guzik, University of Toronto

 Yihan Shao,  Zhengting Gan,  E. Epifanovsky,  A. T. B. Gilbert,  M. Wormit,  
 J. Kussmann,  A. W. Lange,  A. Behn,  Jia Deng,  Xintian Feng,  D. Ghosh,  
 M. Goldey,  P. R. Horn,  L. D. Jacobson,  I. Kaliman,  T. Kus,  A. Landau,  
 Jie Liu,  E. I. Proynov,  R. M. Richard,  R. P. Steele,  E. J. Sundstrom,  
 H. L. Woodcock III,  P. M. Zimmerman,  D. Zuev,  B. Albrecht,  E. Alguire,  
 S. A. Baeppler,  D. Barton,  Z. Benda,  Y. A. Bernard,  E. J. Berquist,  
 K. B. Bravaya,  H. Burton,  D. Casanova,  Chun-Min Chang,  Yunqing Chen,  
 A. Chien,  K. D. Closser,  M. P. Coons,  S. Coriani,  S. Dasgupta,  
 A. L. Dempwolff,  M. Diedenhofen,  Hainam Do,  R. G. Edgar,  Po-Tung Fang,  
 S. Faraji,  S. Fatehi,  Qingguo Feng,  K. D. Fenk,  J. Fosso-Tande,  
 J. Gayvert,  Qinghui Ge,  A. Ghysels,  G. Gidofalvi,  J. Gomes,  
 J. Gonthier,  A. Gunina,  D. Hait,  M. W. D. Hanson-Heine,  
 P. H. P. Harbach,  A. W. Hauser,  M. F. Herbst,  J. E. Herr,  
 E. G. Hohenstein,  Z. C. Holden,  Kerwin Hui,  B. C. Huynh,  T.-C. Jagau,  
 Hyunjun Ji,  B. Kaduk,  K. Khistyaev,  Jaehoon Kim,  P. Klunzinger,  K. Koh,  
 D. Kosenkov,  L. Koulias,  T. Kowalczyk,  C. M. Krauter,  A. Kunitsa,  
 Ka Un Lao,  A. Laurent,  K. V. Lawler,  Joonho Lee,  D. Lefrancois,  
 S. Lehtola,  D. S. Levine,  Yi-Pei Li,  You-Sheng Lin,  Fenglai Liu,  
 E. Livshits,  A. Luenser,  P. Manohar,  E. Mansoor,  S. F. Manzer,  
 Shan-Ping Mao,  Yuezhi Mao,  N. Mardirossian,  A. V. Marenich,  
 T. Markovich,  L. A. Martinez-Martinez,  S. A. Maurer,  N. J. Mayhall,  
 S. C. McKenzie,  J.-M. Mewes,  P. Morgante,  A. F. Morrison,  
 J. W. Mullinax,  K. Nanda,  T. S. Nguyen-Beck,  R. Olivares-Amaya,  
 J. A. Parkhill,  Zheng Pei,  T. M. Perrine,  F. Plasser,  P. Pokhilko,  
 S. Prager,  A. Prociuk,  E. Ramos,  D. R. Rehn,  F. Rob,  M. Scheurer,  
 M. Schneider,  N. Sergueev,  S. M. Sharada,  S. Sharma,  D. W. Small,  
 T. Stauch,  T. Stein,  Yu-Chuan Su,  A. J. W. Thom,  A. Tkatchenko,  
 T. Tsuchimochi,  N. M. Tubman,  L. Vogt,  M. L. Vidal,  O. Vydrov,  
 M. A. Watson,  J. Wenzel,  M. de Wergifosse,  T. A. Wesolowski,  A. White,  
 J. Witte,  A. Yamada,  Jun Yang,  K. Yao,  S. Yeganeh,  S. R. Yost,  
 Zhi-Qiang You,  A. Zech,  Igor Ying Zhang,  Xing Zhang,  Yan Zhao,  
 Ying Zhu,  B. R. Brooks,  G. K. L. Chan,  C. J. Cramer,  M. S. Gordon,  
 W. J. Hehre,  A. Klamt,  M. W. Schmidt,  C. D. Sherrill,  D. G. Truhlar,  
 A. Aspuru-Guzik,  R. Baer,  A. T. Bell,  N. A. Besley,  Jeng-Da Chai,  
 A. E. DePrince, III,  R. A. DiStasio Jr.,  A. Dreuw,  B. D. Dunietz,  
 T. R. Furlani,  Chao-Ping Hsu,  Yousung Jung,  Jing Kong,  D. S. Lambrecht,  
 WanZhen Liang,  C. Ochsenfeld,  V. A. Rassolov,  L. V. Slipchenko,  
 J. E. Subotnik,  T. Van Voorhis,  J. M. Herbert,  A. I. Krylov,  
 P. M. W. Gill,  M. Head-Gordon

 Contributors to earlier versions of Q-Chem not listed above: 
 R. D. Adamson,  B. Austin,  J. Baker,  G. J. O. Beran,  K. Brandhorst,  
 S. T. Brown,  E. F. C. Byrd,  A. K. Chakraborty,  C.-L. Cheng,  
 Siu Hung Chien,  D. M. Chipman,  D. L. Crittenden,  H. Dachsel,  
 R. J. Doerksen,  A. D. Dutoi,  L. Fusti-Molnar,  W. A. Goddard III,  
 A. Golubeva-Zadorozhnaya,  S. R. Gwaltney,  G. Hawkins,  A. Heyden,  
 S. Hirata,  G. Kedziora,  F. J. Keil,  C. Kelley,  Jihan Kim,  R. A. King,  
 R. Z. Khaliullin,  P. P. Korambath,  W. Kurlancheek,  A. M. Lee,  M. S. Lee,  
 S. V. Levchenko,  Ching Yeh Lin,  D. Liotard,  R. C. Lochan,  I. Lotan,  
 P. E. Maslen,  N. Nair,  D. P. O'Neill,  D. Neuhauser,  E. Neuscamman,  
 C. M. Oana,  R. Olson,  B. Peters,  R. Peverati,  P. A. Pieniazek,  
 Y. M. Rhee,  J. Ritchie,  M. A. Rohrdanz,  E. Rosta,  N. J. Russ,  
 H. F. Schaefer III,  N. E. Schultz,  N. Shenvi,  A. C. Simmonett,  A. Sodt,  
 D. Stuck,  K. S. Thanthiriwatte,  V. Vanovschi,  Tao Wang,  A. Warshel,  
 C. F. Williams,  Q. Wu,  X. Xu,  W. Zhang

 Please cite Q-Chem as follows:
 Y. Shao et al., Mol. Phys. 113, 184-215 (2015)
 DOI: 10.1080/00268976.2014.952696

 Q-Chem 5.2.1 for Intel X86 EM64T Linux

 Parts of Q-Chem use Armadillo 8.300.2 (Tropical Shenanigans).
 http://arma.sourceforge.net/

 Q-Chem begins on Mon Feb  7 17:17:06 2022  

Host: 
0

     Scratch files written to /gpfs/fs0/scratch/a/aspuru/rhickman/descriptor_computation/qchem142507//
 Jul1719 |scratch|qcdevops|jenkins|workspace|build_RNUM -1
Processing $rem in /scinet/niagara/software/commercial/qc52/config/preferences:
	 MEM_TOTAL  4000 
NAlpha2: 86
NElect   86
Mult     1

Checking the input file for inconsistencies... 	...done.

--------------------------------------------------------------
User input:
--------------------------------------------------------------
$molecule
0 1
C         4.00873158380000   -0.49730865980000   -0.02546984620000
C         3.03192161220000    0.40153770670000   -0.03778087630000
C         1.61833338450000    0.04931384410000   -0.00252881860000
C         0.64567516870000    1.05180102030000   -0.01063100890000
C        -0.69641086570000    0.70160101560000    0.01512452580000
O        -1.72259922130000    1.58908472970000    0.00216881450000
C        -1.42859349460000    2.96467542600000   -0.02488488910000
C        -1.03730993650000   -0.66938191630000    0.04835053870000
C        -2.43446356200000   -1.07148833840000    0.08140990440000
C        -2.90006303910000   -2.29587557150000   -0.13736790210000
C         0.02494354110000   -1.57270348640000    0.06825082470000
N         1.29715396360000   -1.24333053610000    0.04147837090000
H         5.04695384500000   -0.21422310130000   -0.05271526910000
H         3.77655497720000   -1.54729624830000    0.01269585450000
H         3.25076469290000    1.46111054010000   -0.07548244990000
H         0.95757678920000    2.08409547410000   -0.03896881250000
H        -2.39265413150000    3.47091015300000   -0.02319539750000
H        -0.87797422240000    3.23977141480000   -0.93002921240000
H        -0.85775544950000    3.27118064360000    0.85743209280000
H        -3.12506433300000   -0.26604573270000    0.29156669640000
H        -2.26046097530000   -3.12762806290000   -0.37808461660000
H        -3.95449671240000   -2.50728616730000   -0.09074269230000
H        -0.16928390800000   -2.63528121460000    0.12088281730000
$end

$rem
BASIS = 6-31G*
GUI = 2
METHOD = B3LYP
PRINT_ORBITALS false
MOLDEN_FORMAT false
--------------------------------------------------------------
 ----------------------------------------------------------------
             Standard Nuclear Orientation (Angstroms)
    I     Atom           X                Y                Z
 ----------------------------------------------------------------
    1      C       4.0064313872    -0.5600922477    -0.0226285857
    2      C       3.0395486328     0.3494070666    -0.0361492746
    3      C       1.6221756309     0.0127655998    -0.0006199810
    4      C       0.6605817047     1.0258589931    -0.0100585218
    5      C      -0.6852702833     0.6904446868     0.0159796051
    6      O      -1.7016531189     1.5891233001     0.0018227663
    7      C      -1.3925618321     2.9613694162    -0.0268862435
    8      C      -1.0412020992    -0.6766715968     0.0508501305
    9      C      -2.4426888692    -1.0633756826     0.0842497282
   10      C      -2.9216801012    -2.2828457505    -0.1330768723
   11      C       0.0110691564    -1.5915744763     0.0719749184
   12      N       1.2868212100    -1.2762201451     0.0449377695
   13      H       5.0477013008    -0.2884544673    -0.0501075489
   14      H       3.7627387665    -1.6074202034     0.0167997457
   15      H       3.2700137095     1.4064666207    -0.0751266987
   16      H       0.9837993629     2.0546317822    -0.0396285257
   17      H      -2.3510072967     3.4781582793    -0.0259233817
   18      H      -0.8388689004     3.2292927927    -0.9323070483
   19      H      -0.8184782502     3.2626729709     0.8551165839
   20      H      -3.1244263888    -0.2501431160     0.2933426266
   21      H      -2.2912240993    -3.1218642854    -0.3727029800
   22      H      -3.9783754929    -2.4826111844    -0.0863078412
   23      H      -0.1948161927    -2.6518906262     0.1258891326
 ----------------------------------------------------------------
 Molecular Point Group                 C1    NOp =  1
 Largest Abelian Subgroup              C1    NOp =  1
 Nuclear Repulsion Energy =         651.88839653 hartrees
 There are       43 alpha and       43 beta electrons
 Requested basis set is 6-31G(d)
 There are 70 shells and 202 basis functions

 Total QAlloc Memory Limit   4000 MB
 Mega-Array Size       188 MB
 MEM_STATIC part       192 MB
 A cutoff of  1.0D-08 yielded   1681 shell pairs
 There are     15508 function pairs
 Smallest overlap matrix eigenvalue = 5.59E-04

 Scale SEOQF with 1.000000e-01/1.000000e-01/1.000000e+00

 Standard Electronic Orientation quadrupole field applied
 Nucleus-field energy     =     0.0000000276 hartrees
 Guess from superposition of atomic densities
 Warning:  Energy on first SCF cycle will be non-variational
 SAD guess density has 86.000000 electrons

 -----------------------------------------------------------------------
  General SCF calculation program by
  Eric Jon Sundstrom, Paul Horn, Yuezhi Mao, Dmitri Zuev, Alec White,
  David Stuck, Shaama M.S., Shane Yost, Joonho Lee, David Small,
  Daniel Levine, Susi Lehtola, Hugh Burton, Evgeny Epifanovsky,
  Bang C. Huynh
 -----------------------------------------------------------------------
 Exchange:     0.2000 Hartree-Fock + 0.0800 Slater + 0.7200 B88
 Correlation:  0.1900 VWN1RPA + 0.8100 LYP
 Using SG-1 standard quadrature grid
 A restricted SCF calculation will be
 performed using DIIS
 SCF converges when DIIS error is below 1.0e-05
 ---------------------------------------
  Cycle       Energy         DIIS error
 ---------------------------------------
    1    -520.3463222327      5.75e-02  
    2    -517.4369874481      5.68e-03  
    3    -517.4062240234      6.32e-03  
    4    -517.5929133836      1.82e-03  
    5    -517.6093268033      4.34e-04  
    6    -517.6101706412      1.84e-04  
    7    -517.6103315884      4.32e-05  
    8    -517.6103381907      2.35e-05  
    9    -517.6103411542      2.43e-06  Convergence criterion met
 ---------------------------------------
 SCF time:   CPU 27.38s  wall 27.00s 
 SCF   energy in the final basis set =     -517.6103411542
 Total energy in the final basis set =     -517.6103411542
 
 --------------------------------------------------------------
 
                    Orbital Energies (a.u.)
 --------------------------------------------------------------
 
 Alpha MOs
 -- Occupied --
-19.1938 -14.3137 -10.2620 -10.2504 -10.2230 -10.2148 -10.1947 -10.1914
-10.1870 -10.1842 -10.1769 -10.1758  -1.0846  -0.9434  -0.8224  -0.7959
 -0.7688  -0.7331  -0.7113  -0.6460  -0.6240  -0.5704  -0.5692  -0.5297
 -0.5107  -0.4840  -0.4730  -0.4649  -0.4523  -0.4364  -0.4257  -0.4129
 -0.4079  -0.3808  -0.3693  -0.3562  -0.3538  -0.3330  -0.3142  -0.2739
 -0.2499  -0.2474  -0.2103
 -- Virtual --
 -0.0465  -0.0054   0.0285   0.0878   0.0917   0.1014   0.1205   0.1292
  0.1431   0.1436   0.1603   0.1615   0.1816   0.1903   0.2041   0.2076
  0.2114   0.2559   0.2715   0.3072   0.3225   0.3487   0.3524   0.3747
  0.3846   0.4126   0.4562   0.4793   0.4973   0.5099   0.5350   0.5368
  0.5400   0.5409   0.5635   0.5775   0.5827   0.5920   0.6045   0.6089
  0.6221   0.6328   0.6617   0.6661   0.6848   0.6919   0.7050   0.7158
  0.7280   0.7327   0.7662   0.8279   0.8314   0.8347   0.8469   0.8561
  0.8628   0.8722   0.8871   0.8968   0.9087   0.9177   0.9232   0.9505
  0.9691   0.9818   0.9975   1.0100   1.0360   1.0413   1.0553   1.0938
  1.1329   1.1421   1.1554   1.1976   1.2344   1.2420   1.2630   1.2842
  1.3063   1.3343   1.3647   1.3730   1.4083   1.4121   1.4411   1.4869
  1.4984   1.5088   1.5142   1.5185   1.5367   1.6190   1.6670   1.6792
  1.6857   1.7396   1.7617   1.7961   1.8371   1.8704   1.8755   1.8880
  1.9392   1.9458   1.9863   2.0047   2.0212   2.0412   2.0562   2.0890
  2.1054   2.1220   2.1346   2.1619   2.2011   2.2252   2.2342   2.2427
  2.2759   2.2866   2.3054   2.3278   2.3796   2.3821   2.4069   2.4682
  2.4752   2.5174   2.5260   2.5707   2.6103   2.6280   2.6593   2.6891
  2.7340   2.7694   2.7966   2.8441   2.9036   2.9445   2.9732   3.0621
  3.1254   3.2912   3.4776   4.0296   4.0874   4.1157   4.1490   4.1759
  4.2414   4.2647   4.3113   4.3260   4.5131   4.5246   4.7710
 --------------------------------------------------------------
 
          Ground-State Mulliken Net Atomic Charges

     Atom                 Charge (a.u.)
  ----------------------------------------
      1 C                    -0.332042
      2 C                    -0.106709
      3 C                     0.321210
      4 C                    -0.258577
      5 C                     0.356131
      6 O                    -0.500892
      7 C                    -0.218468
      8 C                     0.083609
      9 C                    -0.105868
     10 C                    -0.349669
     11 C                    -0.021026
     12 N                    -0.496797
     13 H                     0.139890
     14 H                     0.172485
     15 H                     0.120563
     16 H                     0.133208
     17 H                     0.174755
     18 H                     0.157957
     19 H                     0.157601
     20 H                     0.148184
     21 H                     0.143915
     22 H                     0.143522
     23 H                     0.137016
  ----------------------------------------
  Sum of atomic charges =     0.000000

 -----------------------------------------------------------------
                    Cartesian Multipole Moments
 -----------------------------------------------------------------
    Charge (ESU x 10^10)
                 0.0000
    Dipole Moment (Debye)
         X      -0.7503      Y       2.8354      Z      -0.0413
       Tot       2.9333
    Quadrupole Moments (Debye-Ang)
        XX     -67.5065     XY       1.5555     YY     -59.8867
        XZ      -0.4078     YZ       0.2507     ZZ     -73.5286
    Octopole Moments (Debye-Ang^2)
       XXX       2.1586    XXY       6.9085    XYY     -16.1169
       YYY      28.7810    XXZ       0.5771    XYZ      -0.9760
       YYZ      -2.0014    XZZ      -3.7167    YZZ       5.9690
       ZZZ       0.1762
    Hexadecapole Moments (Debye-Ang^3)
      XXXX   -1857.7743   XXXY      -6.5476   XXYY    -484.8628
      XYYY     -34.6020   YYYY    -976.2559   XXXZ      -7.3455
      XXYZ       1.0290   XYYZ       3.9805   YYYZ       4.0480
      XXZZ    -382.9874   XYZZ     -11.9273   YYZZ    -201.3657
      XZZZ      -0.1482   YZZZ      -0.3208   ZZZZ     -81.9539
 -----------------------------------------------------------------
Archival summary:
1\1\nia1977.scinet.local\SP\ProcedureUnspecified\6-31G*\111011\rhickman\MonFeb717:17:332022MonFeb717:17:332022\0\\#,ProcedureUnspecified,6-31G*,\\0,1\O\C,1,1.35678\C,2,1.38726,1,124.5\H,3,1.07876,2,121.451,1,0.281386,0\C,3,1.39682,2,119.497,1,-179.588,0\N,5,1.33267,3,121.905,2,-0.611922,0\C,6,1.31443,5,118.489,3,0.485697,0\H,7,1.08146,6,114.899,5,-178.986,0\C,7,1.39455,6,125.075,5,0.299319,0\C,1,1.40692,2,118.795,3,-0.710509,0\H,10,1.08889,1,105.635,2,-179.581,0\H,10,1.0946,1,111.515,2,61.8348,0\H,10,1.09466,1,111.545,2,-60.9461,0\C,9,1.45424,7,123.531,6,-179.896,0\H,14,1.08159,9,114.327,7,166.442,0\C,14,1.32807,9,126.015,7,-14.568,0\H,16,1.07643,14,121.155,9,179.862,0\H,16,1.0765,14,122.742,9,-0.70964,0\C,5,1.45724,3,120.124,2,179.615,0\H,19,1.08259,5,115.69,3,-0.359193,0\C,19,1.32749,5,123.361,3,179.64,0\H,21,1.07603,19,120.15,5,-0.0322387,0\H,21,1.07647,19,122.1,5,179.964,0\\\@

 Total job time:  27.65s(wall), 27.55s(cpu) 
 Mon Feb  7 17:17:33 2022

        *************************************************************
        *                                                           *
        *  Thank you very much for using Q-Chem.  Have a nice day.  *
        *                                                           *
        *************************************************************


