19
 energy: -26.710233194423 gnorm: 0.000098557475 xtb: 6.4.1 (23d549d)
C         3.71935328730000   -0.69566626560000   -0.03159418570000
C         2.84308058800000    0.30108191590000    0.01950319520000
C         1.39436144300000    0.17740989620000    0.01260843570000
C         0.70809253360000   -1.04040373270000    0.02402895390000
C        -0.67040799460000   -1.04906809250000    0.01451601280000
C        -1.36391462290000    0.16571484970000   -0.00614842100000
C        -2.81626279300000    0.27884645610000   -0.01747913330000
C        -3.68820884770000   -0.72201563650000    0.00954843870000
N        -0.71147860110000    1.33080410350000   -0.01641869460000
C         0.60154514160000    1.33075043370000   -0.00600128490000
H         4.77944598570000   -0.50933734130000   -0.02406237260000
H         3.42415071460000   -1.72971138460000   -0.08572825420000
H         3.20470053120000    1.32133081620000    0.06573605710000
H         1.25092202560000   -1.97386617440000    0.04387191590000
H        -1.20594914280000   -1.98520002710000    0.02333623930000
H        -3.16212867300000    1.30318067800000   -0.04929934520000
H        -3.39076879420000   -1.75654838070000    0.04420675310000
H        -4.74893434230000   -0.53871794630000   -0.00123526820000
H         1.06475226300000    2.31079368610000   -0.01486244520000
