
Running Job 1 of 1 tidas/B031/conf-1/spe_input.inp
qchem tidas/B031/conf-1/spe_input.inp_134481.0 /home/a/aspuru/seifridm/acdc_laser/descriptor_computation/qchem134481/ 0
/gpfs/fs1/scinet/niagara/software/commercial/qc54/exe/qcprog.exe_s tidas/B031/conf-1/spe_input.inp_134481.0 /home/a/aspuru/seifridm/acdc_laser/descriptor_computation/qchem134481/
                  Welcome to Q-Chem
     A Quantum Leap Into The Future Of Chemistry


 Q-Chem 5.4, Q-Chem, Inc., Pleasanton, CA (2021)

 License issued to: SRG Alan Aspuru-Guzik, University of Toronto

 E. Epifanovsky,  A. T. B. Gilbert,  Xintian Feng,  Joonho Lee,  Yuezhi Mao,  
 N. Mardirossian,  P. Pokhilko,  A. White,  M. Wormit,  M. P. Coons,  
 A. L. Dempwolff,  Zhengting Gan,  D. Hait,  P. R. Horn,  L. D. Jacobson,  
 I. Kaliman,  J. Kussmann,  A. W. Lange,  Ka Un Lao,  D. S. Levine,  Jie Liu,  
 S. C. McKenzie,  A. F. Morrison,  K. Nanda,  F. Plasser,  D. R. Rehn,  
 M. L. Vidal,  Zhi-Qiang You,  Ying Zhu,  B. Alam,  B. Albrecht,  
 A. Aldossary,  E. Alguire,  J. H. Andersen,  D. Barton,  K. Begam,  A. Behn,  
 Y. A. Bernard,  E. J. Berquist,  H. Burton,  A. Carreras,  K. Carter-Fenk,  
 Romit Chakraborty,  A. D. Chien,  K. D. Closser,  V. Cofer-Shabica,  
 S. Dasgupta,  Jia Deng,  M. de Wergifosse,  M. Diedenhofen,  Hainam Do,  
 S. Ehlert,  Po-Tung Fang,  S. Fatehi,  Qingguo Feng,  T. Friedhoff,  
 J. Gayvert,  Qinghui Ge,  G. Gidofalvi,  M. Goldey,  J. Gomes,  
 C. Gonzalez-Espinoza,  S. Gulania,  A. Gunina,  M. W. D. Hanson-Heine,  
 P. H. P. Harbach,  A. W. Hauser,  M. F. Herbst,  M. Hernandez Vera,  
 M. Hodecker,  Z. C. Holden,  S. Houck,  Xunkun Huang,  Kerwin Hui,  
 B. C. Huynh,  M. Ivanov,  Hyunjun Ji,  Hanjie Jiang,  B. Kaduk,  S. Kaehler,  
 K. Khistyaev,  Jaehoon Kim,  P. Klunzinger,  Z. Koczor-Benda,  
 Joong Hoon Koh,  D. Kosenkov,  L. Koulias,  T. Kowalczyk,  C. M. Krauter,  
 K. Kue,  A. Kunitsa,  T. Kus,  A. Landau,  K. V. Lawler,  D. Lefrancois,  
 S. Lehtola,  Rain Li,  Yi-Pei Li,  Jiashu Liang,  M. Liebenthal,  
 Hung-Hsuan Lin,  You-Sheng Lin,  Fenglai Liu,  Kuan-Yu Liu,  
 M. Loipersberger,  A. Luenser,  A. Manjanath,  P. Manohar,  E. Mansoor,  
 S. F. Manzer,  Shan-Ping Mao,  A. V. Marenich,  T. Markovich,  S. Mason,  
 S. A. Maurer,  P. F. McLaughlin,  M. F. S. J. Menger,  J.-M. Mewes,  
 S. A. Mewes,  P. Morgante,  J. W. Mullinax,  K. J. Oosterbaan,  G. Paran,  
 Alexander C. Paul,  Suranjan K. Paul,  F. Pavosevic,  Zheng Pei,  S. Prager,  
 E. I. Proynov,  E. Ramos,  B. Rana,  A. E. Rask,  A. Rettig,  R. M. Richard,  
 F. Rob,  E. Rossomme,  T. Scheele,  M. Scheurer,  M. Schneider,  
 N. Sergueev,  S. M. Sharada,  W. Skomorowski,  D. W. Small,  C. J. Stein,  
 Yu-Chuan Su,  E. J. Sundstrom,  Zhen Tao,  J. Thirman,  T. Tsuchimochi,  
 N. M. Tubman,  S. P. Veccham,  O. Vydrov,  J. Wenzel,  J. Witte,  A. Yamada,  
 Kun Yao,  S. Yeganeh,  S. R. Yost,  A. Zech,  Igor Ying Zhang,  Xing Zhang,  
 Yu Zhang,  D. Zuev,  A. Aspuru-Guzik,  A. T. Bell,  N. A. Besley,  
 K. B. Bravaya,  B. R. Brooks,  D. Casanova,  Jeng-Da Chai,  S. Coriani,  
 C. J. Cramer,  A. E. DePrince, III,  R. A. DiStasio Jr.,  A. Dreuw,  
 B. D. Dunietz,  T. R. Furlani,  W. A. Goddard III,  S. Grimme,  
 S. Hammes-Schiffer,  T. Head-Gordon,  W. J. Hehre,  Chao-Ping Hsu,  
 T.-C. Jagau,  Yousung Jung,  A. Klamt,  Jing Kong,  D. S. Lambrecht,  
 WanZhen Liang,  N. J. Mayhall,  C. W. McCurdy,  J. B. Neaton,  T. Neudecker,  
 C. Ochsenfeld,  J. A. Parkhill,  R. Peverati,  V. A. Rassolov,  Yihan Shao,  
 L. V. Slipchenko,  R. P. Steele,  J. E. Subotnik,  A. J. W. Thom,  
 A. Tkatchenko,  D. G. Truhlar,  T. Van Voorhis,  T. A. Wesolowski,  
 K. B. Whaley,  H. L. Woodcock III,  P. M. Zimmerman,  S. Faraji,  
 P. M. W. Gill,  M. Head-Gordon,  J. M. Herbert,  A. I. Krylov

 Additional authors since Version 5.4.0: 
 Chandrima Chakravarty,  L. Cunha,  R. Kang,  Yongbin Kim,  S. Kotaru,  
 Shaozhi Li,  Xiangyuan Li,  F. Matz,  A. Molle,  V. Parravicini,  
 Haisheng Ren,  Hengyuan Shen,  Yingli Su,  Hung-Yi Tsai,  C. Utku,  
 Fang Wang,  Jeff Yang,  F. Zeller

 Contributors to earlier versions of Q-Chem not listed above: 
 R. D. Adamson,  B. Austin,  R. Baer,  J. Baker,  G. J. O. Beran,  
 K. Brandhorst,  S. T. Brown,  E. F. C. Byrd,  Arup K. Chakraborty,  
 G. K. L. Chan,  Chun-Min Chang,  Yunqing Chen,  C.-L. Cheng,  
 Siu Hung Chien,  D. M. Chipman,  D. L. Crittenden,  H. Dachsel,  
 R. J. Doerksen,  A. D. Dutoi,  R. G. Edgar,  J. Fosso-Tande,  
 L. Fusti-Molnar,  D. Ghosh,  A. Ghysels,  A. Golubeva-Zadorozhnaya,  
 J. Gonthier,  M. S. Gordon,  S. R. Gwaltney,  G. Hawkins,  J. E. Herr,  
 A. Heyden,  S. Hirata,  E. G. Hohenstein,  G. Kedziora,  F. J. Keil,  
 C. Kelley,  Jihan Kim,  R. A. King,  R. Z. Khaliullin,  P. P. Korambath,  
 W. Kurlancheek,  A. Laurent,  A. M. Lee,  M. S. Lee,  S. V. Levchenko,  
 Ching Yeh Lin,  D. Liotard,  E. Livshits,  R. C. Lochan,  I. Lotan,  
 L. A. Martinez-Martinez,  P. E. Maslen,  N. Nair,  D. P. O'Neill,  
 D. Neuhauser,  E. Neuscamman,  C. M. Oana,  R. Olivares-Amaya,  R. Olson,  
 T. M. Perrine,  B. Peters,  P. A. Pieniazek,  A. Prociuk,  Y. M. Rhee,  
 J. Ritchie,  M. A. Rohrdanz,  E. Rosta,  N. J. Russ,  H. F. Schaefer III,  
 M. W. Schmidt,  N. E. Schultz,  S. Sharma,  N. Shenvi,  C. D. Sherrill,  
 A. C. Simmonett,  A. Sodt,  T. Stein,  D. Stuck,  K. S. Thanthiriwatte,  
 V. Vanovschi,  L. Vogt,  Tao Wang,  A. Warshel,  M. A. Watson,  
 C. F. Williams,  Q. Wu,  X. Xu,  Jun Yang,  W. Zhang,  Yan Zhao

   Please cite Q-Chem as follows:
  "Software for the frontiers of quantum chemistry:
   An overview of developments in the Q-Chem 5 package"
   J. Chem. Phys. 155, 084801 (2021)
   https://doi.org/10.1063/5.0055522 (open access)

 Q-Chem 5.4.2 for Intel X86 EM64T Linux

 Parts of Q-Chem use Armadillo 9.900.5 (Nocturnal Misbehaviour).
 http://arma.sourceforge.net/

 Q-Chem begins on Fri Aug 12 13:11:43 2022  

 Host: 
0

     Scratch files written to /home/a/aspuru/seifridm/acdc_laser/descriptor_computation/qchem134481//
 Dec1321 |scratch|qcdevops|jenkins|workspace|build_RNUM 6959   
 Processing $rem in /gpfs/fs1/scinet/niagara/software/commercial/qc54/config/preferences:
 Processing $rem in /home/a/aspuru/seifridm/.qchemrc:

 Checking the input file for inconsistencies... 	...done.

--------------------------------------------------------------
User input:
--------------------------------------------------------------
$molecule
0 1
C           -4.58166234260000       -0.48079963620000        0.20179084810000
C           -3.63575918150000        0.34708038850000       -0.22214488020000
C           -2.19934025880000        0.10949693050000       -0.10106456340000
C           -1.69293348590000       -1.18778609580000       -0.14221619230000
C           -0.34215523650000       -1.46675172740000       -0.03982585390000
C            0.12953917420000       -2.88889338180000       -0.11011490050000
C            0.55483087240000       -0.39675714840000        0.10788738760000
C            1.98152341300000       -0.66085606810000        0.23071555300000
C            2.98209700110000        0.18097714960000        0.02258911820000
F            2.92360332000000        1.44994750960000       -0.36797966830000
F            4.26365137840000       -0.16175649180000        0.17141189680000
C            0.04989897660000        0.90294824700000        0.15021497510000
C           -1.30172222190000        1.17691524720000        0.04554886820000
C           -1.78177304210000        2.59548197180000        0.11515064200000
H           -5.62686502310000       -0.25338500650000        0.07912513470000
H           -4.35333199530000       -1.40601976830000        0.70396877510000
H           -3.92141365090000        1.28133126740000       -0.68667588730000
H           -2.38394266430000       -2.00636377600000       -0.28095074640000
H           -0.70832217550000       -3.55474448120000       -0.30080891880000
H            0.59397178460000       -3.18991762650000        0.82906655110000
H            0.85896431340000       -3.01795483450000       -0.90837666760000
H            2.28201566980000       -1.65708312860000        0.51707141090000
H            0.73110773140000        1.72864039420000        0.28246300740000
H           -0.95416599080000        3.26725937920000        0.32764717050000
H           -2.53363894670000        2.71080749800000        0.89432217750000
H           -2.22889900370000        2.89594147150000       -0.83252688810000
$end

$rem
BASIS = 6-31G*
GUI = 2
METHOD = B3LYP
PRINT_ORBITALS false
MOLDEN_FORMAT false
$end
--------------------------------------------------------------
 ----------------------------------------------------------------
             Standard Nuclear Orientation (Angstroms)
    I     Atom           X                Y                Z
 ----------------------------------------------------------------
    1      C       4.4499184813    -0.5310648054    -0.2058498163
    2      C       3.5183244858     0.3129332324     0.2179892651
    3      C       2.0780243877     0.0981630081     0.1004518573
    4      C       1.5509358291    -1.1907131307     0.1458443323
    5      C       0.1956397710    -1.4481904408     0.0469225768
    6      C      -0.2986851067    -2.8623955137     0.1216887425
    7      C      -0.6843542667    -0.3642861305    -0.1015820364
    8      C      -2.1153587664    -0.6057288240    -0.2208219227
    9      C      -3.1018446007     0.2525739310    -0.0127129028
   10      F      -3.0221595254     1.5213870616     0.3746045258
   11      F      -4.3890473842    -0.0698880077    -0.1580521016
   12      C      -0.1587039548     0.9270328915    -0.1481534013
   13      C       1.1973594368     1.1795042234    -0.0469452987
   14      C       1.6999836556     2.5900022626    -0.1210325796
   15      H       5.4988936668    -0.3201732371    -0.0858967374
   16      H       4.2057055832    -1.4537160984    -0.7052738471
   17      H       3.8199200550     1.2436015847     0.6796263171
   18      H       2.2289989087    -2.0199465078     0.2851743216
   19      H       0.5287726777    -3.5411552996     0.3122990900
   20      H      -0.7698612739    -3.1582032373    -0.8157897130
   21      H      -1.0284129066    -2.9777798953     0.9217659411
   22      H      -2.4324117889    -1.5976934177    -0.5041013880
   23      H      -0.8268400312     1.7632381281    -0.2810346162
   24      H       0.8828282697     3.2744698050    -0.3334810432
   25      H       2.4519687194     2.6913384496    -0.9020319639
   26      H       2.1538641953     2.8855440163     0.8249789240
 ----------------------------------------------------------------
 Molecular Point Group                 C1    NOp =  1
 Largest Abelian Subgroup              C1    NOp =  1
 Nuclear Repulsion Energy =         843.49974233 hartrees
 There are       51 alpha and       51 beta electrons
 Requested basis set is 6-31G(d)
 There are 80 shells and 234 basis functions

 Total QAlloc Memory Limit   8000 MB
 Mega-Array Size       188 MB
 MEM_STATIC part       192 MB
 A cutoff of  1.0D-08 yielded   2123 shell pairs
 There are     19315 function pairs
 Smallest overlap matrix eigenvalue = 2.89E-04

 Scale SEOQF with 1.000000e-02/1.000000e-01/1.000000e+00

 Standard Electronic Orientation quadrupole field applied
 Nucleus-field energy     =     0.0000000103 hartrees
 Guess from superposition of atomic densities
 Warning:  Energy on first SCF cycle will be non-variational
 SAD guess density has 102.000000 electrons

 -----------------------------------------------------------------------
  General SCF calculation program by
  Eric Jon Sundstrom, Paul Horn, Yuezhi Mao, Dmitri Zuev, Alec White,
  David Stuck, Shaama M.S., Shane Yost, Joonho Lee, David Small,
  Daniel Levine, Susi Lehtola, Hugh Burton, Evgeny Epifanovsky,
  Bang C. Huynh
 -----------------------------------------------------------------------
 Exchange:     0.2000 Hartree-Fock + 0.0800 Slater + 0.7200 B88
 Correlation:  0.1900 VWN1RPA + 0.8100 LYP
 Using SG-1 standard quadrature grid
 A restricted SCF calculation will be
 performed using DIIS
 SCF converges when DIIS error is below 1.0e-05
 ---------------------------------------
  Cycle       Energy         DIIS error
 ---------------------------------------
    1    -667.2157541365      5.19e-02  
    2    -663.8841576620      6.02e-03  
    3    -663.7022951182      7.84e-03  
    4    -664.1292583901      1.55e-03  
    5    -664.1456988036      4.13e-04  
    6    -664.1465107991      2.20e-04  
    7    -664.1468540691      5.37e-05  
    8    -664.1468714604      1.97e-05  
    9    -664.1468738578      7.53e-06  Convergence criterion met
 ---------------------------------------
 SCF time:   CPU 61.89s  wall 63.00s 
 SCF   energy in the final basis set =     -664.1468738578
 Total energy in the final basis set =     -664.1468738578
 
 --------------------------------------------------------------
 
                    Orbital Energies (a.u.)
 --------------------------------------------------------------
 
 Alpha MOs
 -- Occupied --
-24.7411 -24.7312 -10.3540 -10.1993 -10.1980 -10.1918 -10.1898 -10.1879
-10.1875 -10.1827 -10.1798 -10.1794 -10.1791 -10.1788  -1.2817  -1.2208
 -0.8711  -0.8184  -0.7851  -0.7756  -0.7230  -0.7183  -0.6588  -0.6464
 -0.6161  -0.5861  -0.5664  -0.5521  -0.5174  -0.5158  -0.4864  -0.4808
 -0.4485  -0.4397  -0.4359  -0.4336  -0.4307  -0.4201  -0.4147  -0.4095
 -0.4005  -0.3943  -0.3749  -0.3715  -0.3534  -0.3361  -0.3308  -0.3059
 -0.2642  -0.2380  -0.2070
 -- Virtual --
 -0.0381   0.0094   0.0240   0.0830   0.0927   0.1045   0.1248   0.1275
  0.1435   0.1476   0.1537   0.1565   0.1600   0.1781   0.1834   0.2013
  0.2127   0.2172   0.2316   0.2557   0.2578   0.3111   0.3157   0.3488
  0.3529   0.3671   0.4085   0.4119   0.4330   0.4866   0.4949   0.5003
  0.5068   0.5245   0.5329   0.5368   0.5584   0.5620   0.5675   0.5791
  0.5890   0.5907   0.5990   0.6056   0.6226   0.6293   0.6316   0.6485
  0.6832   0.6960   0.7068   0.7308   0.7339   0.7430   0.7601   0.7737
  0.7800   0.7978   0.8143   0.8347   0.8520   0.8538   0.8658   0.8731
  0.8989   0.9095   0.9260   0.9289   0.9565   0.9627   0.9722   0.9843
  1.0033   1.0144   1.0241   1.0332   1.0760   1.1085   1.1181   1.1247
  1.1485   1.1778   1.1938   1.2027   1.2134   1.2322   1.2484   1.2647
  1.2855   1.3093   1.3252   1.3599   1.3813   1.3850   1.4093   1.4237
  1.4539   1.4659   1.4692   1.4890   1.5063   1.5314   1.5446   1.5702
  1.6216   1.6842   1.6941   1.7412   1.7718   1.7875   1.7990   1.8024
  1.8211   1.8383   1.8466   1.8532   1.8852   1.8904   1.9111   1.9194
  1.9306   1.9605   1.9754   1.9883   1.9978   2.0166   2.0227   2.0381
  2.0758   2.0992   2.1111   2.1398   2.1578   2.1855   2.2030   2.2187
  2.2401   2.2542   2.2600   2.2742   2.3121   2.3302   2.3406   2.3584
  2.3826   2.3960   2.4190   2.4456   2.4858   2.5034   2.5278   2.5465
  2.6053   2.6399   2.6831   2.7196   2.7306   2.7609   2.7910   2.8441
  2.8807   2.9407   2.9554   3.0240   3.0645   3.1339   3.1804   3.3241
  3.4825   4.0896   4.1072   4.1195   4.1372   4.1469   4.2196   4.2588
  4.2799   4.3437   4.4107   4.5397   4.7447   4.8250   5.2739
 --------------------------------------------------------------
 
          Ground-State Mulliken Net Atomic Charges

     Atom                 Charge (a.u.)
  ----------------------------------------
      1 C                    -0.338970
      2 C                    -0.130876
      3 C                     0.123687
      4 C                    -0.266134
      5 C                     0.130417
      6 C                    -0.539223
      7 C                     0.152362
      8 C                    -0.313889
      9 C                     0.550374
     10 F                    -0.235453
     11 F                    -0.251363
     12 C                    -0.272736
     13 C                     0.128280
     14 C                    -0.537051
     15 H                     0.141560
     16 H                     0.143240
     17 H                     0.131367
     18 H                     0.121316
     19 H                     0.159728
     20 H                     0.162110
     21 H                     0.165540
     22 H                     0.160416
     23 H                     0.128259
     24 H                     0.158035
     25 H                     0.166513
     26 H                     0.162490
  ----------------------------------------
  Sum of atomic charges =     0.000000

 -----------------------------------------------------------------
                    Cartesian Multipole Moments
 -----------------------------------------------------------------
    Charge (ESU x 10^10)
                 0.0000
    Dipole Moment (Debye)
         X       0.9154      Y      -0.5625      Z      -0.1231
       Tot       1.0815
    Quadrupole Moments (Debye-Ang)
        XX     -80.9985     XY       2.3126     YY     -74.3804
        XZ       0.7861     YZ       0.6433     ZZ     -82.5583
    Octopole Moments (Debye-Ang^2)
       XXX     -16.1620    XXY       0.7183    XYY     -14.2437
       YYY       7.1264    XXZ       1.1042    XYZ       3.8888
       YYZ      -0.8961    XZZ     -24.8775    YZZ       4.7759
       ZZZ       2.5537
    Hexadecapole Moments (Debye-Ang^3)
      XXXX   -3056.9322   XXXY     -22.0098   XXYY    -676.3722
      XYYY     -34.2604   YYYY   -1102.9169   XXXZ      -3.0446
      XXYZ      16.1101   XYYZ       3.6887   YYYZ       5.8170
      XXZZ    -541.0154   XYZZ      -6.5866   YYZZ    -203.5876
      XZZZ      -5.0269   YZZZ       7.2078   ZZZZ    -112.8072
 -----------------------------------------------------------------
 Total job time:  66.82s(wall), 62.44s(cpu) 
 Fri Aug 12 13:12:49 2022

        *************************************************************
        *                                                           *
        *  Thank you very much for using Q-Chem.  Have a nice day.  *
        *                                                           *
        *************************************************************


