
Running Job 1 of 1 fragments/B013/conf-1/spe_input.inp
qchem fragments/B013/conf-1/spe_input.inp_152917.0 /gpfs/fs0/scratch/a/aspuru/rhickman/descriptor_computation/qchem152917/ 0
/scinet/niagara/software/commercial/qc52/exe/qcprog.exe_s fragments/B013/conf-1/spe_input.inp_152917.0 /gpfs/fs0/scratch/a/aspuru/rhickman/descriptor_computation/qchem152917/
                  Welcome to Q-Chem
     A Quantum Leap Into The Future Of Chemistry


 Q-Chem 5.2, Q-Chem, Inc., Pleasanton, CA (2019)

 License issued to: SRG Alan Aspuru-Guzik, University of Toronto

 Yihan Shao,  Zhengting Gan,  E. Epifanovsky,  A. T. B. Gilbert,  M. Wormit,  
 J. Kussmann,  A. W. Lange,  A. Behn,  Jia Deng,  Xintian Feng,  D. Ghosh,  
 M. Goldey,  P. R. Horn,  L. D. Jacobson,  I. Kaliman,  T. Kus,  A. Landau,  
 Jie Liu,  E. I. Proynov,  R. M. Richard,  R. P. Steele,  E. J. Sundstrom,  
 H. L. Woodcock III,  P. M. Zimmerman,  D. Zuev,  B. Albrecht,  E. Alguire,  
 S. A. Baeppler,  D. Barton,  Z. Benda,  Y. A. Bernard,  E. J. Berquist,  
 K. B. Bravaya,  H. Burton,  D. Casanova,  Chun-Min Chang,  Yunqing Chen,  
 A. Chien,  K. D. Closser,  M. P. Coons,  S. Coriani,  S. Dasgupta,  
 A. L. Dempwolff,  M. Diedenhofen,  Hainam Do,  R. G. Edgar,  Po-Tung Fang,  
 S. Faraji,  S. Fatehi,  Qingguo Feng,  K. D. Fenk,  J. Fosso-Tande,  
 J. Gayvert,  Qinghui Ge,  A. Ghysels,  G. Gidofalvi,  J. Gomes,  
 J. Gonthier,  A. Gunina,  D. Hait,  M. W. D. Hanson-Heine,  
 P. H. P. Harbach,  A. W. Hauser,  M. F. Herbst,  J. E. Herr,  
 E. G. Hohenstein,  Z. C. Holden,  Kerwin Hui,  B. C. Huynh,  T.-C. Jagau,  
 Hyunjun Ji,  B. Kaduk,  K. Khistyaev,  Jaehoon Kim,  P. Klunzinger,  K. Koh,  
 D. Kosenkov,  L. Koulias,  T. Kowalczyk,  C. M. Krauter,  A. Kunitsa,  
 Ka Un Lao,  A. Laurent,  K. V. Lawler,  Joonho Lee,  D. Lefrancois,  
 S. Lehtola,  D. S. Levine,  Yi-Pei Li,  You-Sheng Lin,  Fenglai Liu,  
 E. Livshits,  A. Luenser,  P. Manohar,  E. Mansoor,  S. F. Manzer,  
 Shan-Ping Mao,  Yuezhi Mao,  N. Mardirossian,  A. V. Marenich,  
 T. Markovich,  L. A. Martinez-Martinez,  S. A. Maurer,  N. J. Mayhall,  
 S. C. McKenzie,  J.-M. Mewes,  P. Morgante,  A. F. Morrison,  
 J. W. Mullinax,  K. Nanda,  T. S. Nguyen-Beck,  R. Olivares-Amaya,  
 J. A. Parkhill,  Zheng Pei,  T. M. Perrine,  F. Plasser,  P. Pokhilko,  
 S. Prager,  A. Prociuk,  E. Ramos,  D. R. Rehn,  F. Rob,  M. Scheurer,  
 M. Schneider,  N. Sergueev,  S. M. Sharada,  S. Sharma,  D. W. Small,  
 T. Stauch,  T. Stein,  Yu-Chuan Su,  A. J. W. Thom,  A. Tkatchenko,  
 T. Tsuchimochi,  N. M. Tubman,  L. Vogt,  M. L. Vidal,  O. Vydrov,  
 M. A. Watson,  J. Wenzel,  M. de Wergifosse,  T. A. Wesolowski,  A. White,  
 J. Witte,  A. Yamada,  Jun Yang,  K. Yao,  S. Yeganeh,  S. R. Yost,  
 Zhi-Qiang You,  A. Zech,  Igor Ying Zhang,  Xing Zhang,  Yan Zhao,  
 Ying Zhu,  B. R. Brooks,  G. K. L. Chan,  C. J. Cramer,  M. S. Gordon,  
 W. J. Hehre,  A. Klamt,  M. W. Schmidt,  C. D. Sherrill,  D. G. Truhlar,  
 A. Aspuru-Guzik,  R. Baer,  A. T. Bell,  N. A. Besley,  Jeng-Da Chai,  
 A. E. DePrince, III,  R. A. DiStasio Jr.,  A. Dreuw,  B. D. Dunietz,  
 T. R. Furlani,  Chao-Ping Hsu,  Yousung Jung,  Jing Kong,  D. S. Lambrecht,  
 WanZhen Liang,  C. Ochsenfeld,  V. A. Rassolov,  L. V. Slipchenko,  
 J. E. Subotnik,  T. Van Voorhis,  J. M. Herbert,  A. I. Krylov,  
 P. M. W. Gill,  M. Head-Gordon

 Contributors to earlier versions of Q-Chem not listed above: 
 R. D. Adamson,  B. Austin,  J. Baker,  G. J. O. Beran,  K. Brandhorst,  
 S. T. Brown,  E. F. C. Byrd,  A. K. Chakraborty,  C.-L. Cheng,  
 Siu Hung Chien,  D. M. Chipman,  D. L. Crittenden,  H. Dachsel,  
 R. J. Doerksen,  A. D. Dutoi,  L. Fusti-Molnar,  W. A. Goddard III,  
 A. Golubeva-Zadorozhnaya,  S. R. Gwaltney,  G. Hawkins,  A. Heyden,  
 S. Hirata,  G. Kedziora,  F. J. Keil,  C. Kelley,  Jihan Kim,  R. A. King,  
 R. Z. Khaliullin,  P. P. Korambath,  W. Kurlancheek,  A. M. Lee,  M. S. Lee,  
 S. V. Levchenko,  Ching Yeh Lin,  D. Liotard,  R. C. Lochan,  I. Lotan,  
 P. E. Maslen,  N. Nair,  D. P. O'Neill,  D. Neuhauser,  E. Neuscamman,  
 C. M. Oana,  R. Olson,  B. Peters,  R. Peverati,  P. A. Pieniazek,  
 Y. M. Rhee,  J. Ritchie,  M. A. Rohrdanz,  E. Rosta,  N. J. Russ,  
 H. F. Schaefer III,  N. E. Schultz,  N. Shenvi,  A. C. Simmonett,  A. Sodt,  
 D. Stuck,  K. S. Thanthiriwatte,  V. Vanovschi,  Tao Wang,  A. Warshel,  
 C. F. Williams,  Q. Wu,  X. Xu,  W. Zhang

 Please cite Q-Chem as follows:
 Y. Shao et al., Mol. Phys. 113, 184-215 (2015)
 DOI: 10.1080/00268976.2014.952696

 Q-Chem 5.2.1 for Intel X86 EM64T Linux

 Parts of Q-Chem use Armadillo 8.300.2 (Tropical Shenanigans).
 http://arma.sourceforge.net/

 Q-Chem begins on Mon Feb  7 17:45:58 2022  

Host: 
0

     Scratch files written to /gpfs/fs0/scratch/a/aspuru/rhickman/descriptor_computation/qchem152917//
 Jul1719 |scratch|qcdevops|jenkins|workspace|build_RNUM -1
Processing $rem in /scinet/niagara/software/commercial/qc52/config/preferences:
	 MEM_TOTAL  4000 
NAlpha2: 98
NElect   98
Mult     1

Checking the input file for inconsistencies... 	...done.

--------------------------------------------------------------
User input:
--------------------------------------------------------------
$molecule
0 1
C        -4.35354490820000   -1.35942812850000    0.05571970350000
C        -3.03366611180000   -1.48186249740000   -0.02475743070000
C        -2.05957733930000   -0.39764095880000   -0.01856529180000
C        -2.42481438370000    0.95210141520000   -0.02008190550000
C        -1.46227952550000    1.93698050310000   -0.01306696020000
C        -0.10821665330000    1.60138999370000   -0.00422356700000
C         0.84402533740000    2.64381079370000    0.00268753080000
N         1.60083039240000    3.50598265630000    0.00811462940000
C         0.28995646220000    0.24923641560000   -0.00449929870000
C         1.71278719120000   -0.05084760600000    0.00365305820000
C         2.29984957520000   -1.23944120790000    0.00506457160000
F         1.72412992310000   -2.43505427650000   -0.00124004790000
F         3.61767449230000   -1.39764821660000    0.01327637730000
C        -0.70323711060000   -0.72406884910000   -0.01352904890000
H        -4.99390933410000   -2.22432837520000    0.04592751390000
H        -4.85117073800000   -0.40842368240000    0.13820348990000
H        -2.60172086220000   -2.47223947510000   -0.09593724620000
H        -3.46570220690000    1.23236484970000   -0.03135227130000
H        -1.74431065020000    2.97973142420000   -0.01520800970000
H         2.38514960270000    0.79607022720000    0.00973405250000
H        -0.42879476180000   -1.76667654180000   -0.01445804150000
$end

$rem
BASIS = 6-31G*
GUI = 2
METHOD = B3LYP
PRINT_ORBITALS false
MOLDEN_FORMAT false
--------------------------------------------------------------
 ----------------------------------------------------------------
             Standard Nuclear Orientation (Angstroms)
    I     Atom           X                Y                Z
 ----------------------------------------------------------------
    1      C       4.2679277030     1.3037280537     0.0526521493
    2      C       2.9500652275     1.4463947953    -0.0275443439
    3      C       1.9593866137     0.3773207359    -0.0197878130
    4      C       2.3037804836    -0.9778905878    -0.0198614829
    5      C       1.3261855376    -1.9478111599    -0.0114006390
    6      C      -0.0225421072    -1.5913841822    -0.0025120570
    7      C      -0.9907321504    -2.6189983301     0.0059081421
    8      N      -1.7607313737    -3.4693984910     0.0125735547
    9      C      -0.3998315844    -0.2332564533    -0.0042229854
   10      C      -1.8178662983     0.0887272070     0.0040375818
   11      C      -2.3865424635     1.2862272503     0.0042633065
   12      F      -1.7924691614     2.4728183531    -0.0036070379
   13      F      -3.7017701175     1.4647327476     0.0127136944
   14      C       0.6082394035     0.7246169029    -0.0146950621
   15      H       4.9215407003     2.1586456230     0.0416557309
   16      H       4.7508674610     0.3452635538     0.1360757103
   17      H       2.5334087860     2.4432279807    -0.0997304433
   18      H       3.3402220437    -1.2741738025    -0.0311408247
   19      H       1.5921138416    -2.9947861868    -0.0124268906
   20      H      -2.5031976271    -0.7477212707     0.0113122596
   21      H       0.3498957305     1.7713282419    -0.0167411117
 ----------------------------------------------------------------
 Molecular Point Group                 C1    NOp =  1
 Largest Abelian Subgroup              C1    NOp =  1
 Nuclear Repulsion Energy =         784.42694722 hartrees
 There are       49 alpha and       49 beta electrons
 Requested basis set is 6-31G(d)
 There are 70 shells and 224 basis functions

 Total QAlloc Memory Limit   4000 MB
 Mega-Array Size       188 MB
 MEM_STATIC part       192 MB
 A cutoff of  1.0D-08 yielded   1612 shell pairs
 There are     17629 function pairs
 Smallest overlap matrix eigenvalue = 3.07E-04

 Scale SEOQF with 1.000000e-01/1.000000e-01/1.000000e+00

 Standard Electronic Orientation quadrupole field applied
 Nucleus-field energy     =     0.0000000409 hartrees
 Guess from superposition of atomic densities
 Warning:  Energy on first SCF cycle will be non-variational
 SAD guess density has 98.000000 electrons

 -----------------------------------------------------------------------
  General SCF calculation program by
  Eric Jon Sundstrom, Paul Horn, Yuezhi Mao, Dmitri Zuev, Alec White,
  David Stuck, Shaama M.S., Shane Yost, Joonho Lee, David Small,
  Daniel Levine, Susi Lehtola, Hugh Burton, Evgeny Epifanovsky,
  Bang C. Huynh
 -----------------------------------------------------------------------
 Exchange:     0.2000 Hartree-Fock + 0.0800 Slater + 0.7200 B88
 Correlation:  0.1900 VWN1RPA + 0.8100 LYP
 Using SG-1 standard quadrature grid
 A restricted SCF calculation will be
 performed using DIIS
 SCF converges when DIIS error is below 1.0e-05
 ---------------------------------------
  Cycle       Energy         DIIS error
 ---------------------------------------
    1    -680.9246776965      5.36e-02  
    2    -677.5362089596      5.92e-03  
    3    -677.2765337835      8.93e-03  
    4    -677.7339542009      2.04e-03  
    5    -677.7539223085      8.92e-04  
    6    -677.7580884844      2.92e-04  
    7    -677.7585772345      7.07e-05  
    8    -677.7586068573      2.44e-05  
    9    -677.7586104088      7.94e-06  Convergence criterion met
 ---------------------------------------
 SCF time:   CPU 30.10s  wall 30.00s 
 SCF   energy in the final basis set =     -677.7586104088
 Total energy in the final basis set =     -677.7586104088
 
 --------------------------------------------------------------
 
                    Orbital Energies (a.u.)
 --------------------------------------------------------------
 
 Alpha MOs
 -- Occupied --
-24.7594 -24.7482 -14.3341 -10.3742 -10.2369 -10.2358 -10.2260 -10.2217
-10.2186 -10.2162 -10.2093 -10.2091 -10.2081 -10.1996  -1.3010  -1.2394
 -0.9188  -0.8924  -0.8350  -0.8121  -0.7645  -0.7590  -0.6747  -0.6582
 -0.6350  -0.5945  -0.5846  -0.5650  -0.5338  -0.5310  -0.5120  -0.4844
 -0.4579  -0.4562  -0.4547  -0.4501  -0.4369  -0.4254  -0.4197  -0.4011
 -0.3816  -0.3661  -0.3647  -0.3584  -0.3355  -0.3298  -0.3016  -0.2522
 -0.2371
 -- Virtual --
 -0.0714  -0.0410   0.0089   0.0371   0.0584   0.0826   0.0985   0.1030
  0.1042   0.1323   0.1388   0.1567   0.1774   0.1929   0.1952   0.2046
  0.2246   0.2686   0.2763   0.3018   0.3315   0.3404   0.3870   0.3943
  0.4136   0.4408   0.4742   0.4760   0.4840   0.5056   0.5141   0.5273
  0.5368   0.5377   0.5522   0.5585   0.5603   0.5751   0.5783   0.5884
  0.6028   0.6052   0.6207   0.6324   0.6467   0.6649   0.6786   0.6851
  0.7030   0.7309   0.7436   0.7682   0.7892   0.8083   0.8133   0.8374
  0.8396   0.8611   0.8642   0.8714   0.8909   0.9154   0.9374   0.9531
  0.9677   0.9784   0.9924   1.0416   1.0685   1.0868   1.1093   1.1232
  1.1288   1.1495   1.1947   1.1978   1.1994   1.2122   1.2289   1.2523
  1.2853   1.2928   1.3169   1.3551   1.3688   1.3931   1.4061   1.4104
  1.4233   1.4451   1.4479   1.4609   1.4865   1.4943   1.4997   1.5269
  1.5680   1.5964   1.6305   1.6582   1.6712   1.7408   1.7507   1.7684
  1.7724   1.7801   1.7994   1.8245   1.8327   1.8356   1.8762   1.8914
  1.9238   1.9404   1.9430   1.9631   1.9668   1.9800   1.9876   1.9969
  2.0158   2.0185   2.0271   2.0660   2.1026   2.1375   2.1481   2.1565
  2.1863   2.1940   2.2216   2.2374   2.2703   2.3110   2.3191   2.3409
  2.3916   2.4864   2.4966   2.5156   2.5179   2.5653   2.6067   2.6333
  2.6631   2.6750   2.6880   2.7210   2.7856   2.8286   2.8364   2.8568
  2.9042   2.9373   3.0181   3.0905   3.1097   3.1895   3.2950   3.3541
  3.5164   4.0473   4.0691   4.0774   4.1149   4.1270   4.1696   4.2439
  4.2548   4.3531   4.4415   4.5790   4.7682   4.8631   5.3486
 --------------------------------------------------------------
 
          Ground-State Mulliken Net Atomic Charges

     Atom                 Charge (a.u.)
  ----------------------------------------
      1 C                    -0.346918
      2 C                    -0.114265
      3 C                     0.203387
      4 C                    -0.190194
      5 C                    -0.142742
      6 C                     0.094920
      7 C                     0.208514
      8 N                    -0.484055
      9 C                     0.217420
     10 C                    -0.314780
     11 C                     0.558943
     12 F                    -0.229968
     13 F                    -0.236869
     14 C                    -0.309080
     15 H                     0.155228
     16 H                     0.150486
     17 H                     0.137573
     18 H                     0.139686
     19 H                     0.161012
     20 H                     0.191974
     21 H                     0.149728
  ----------------------------------------
  Sum of atomic charges =     0.000000

 -----------------------------------------------------------------
                    Cartesian Multipole Moments
 -----------------------------------------------------------------
    Charge (ESU x 10^10)
                 0.0000
    Dipole Moment (Debye)
         X       3.4768      Y       2.7280      Z      -0.0190
       Tot       4.4193
    Quadrupole Moments (Debye-Ang)
        XX     -73.7764     XY      -7.6972     YY     -86.4269
        XZ       0.1562     YZ      -0.0670     ZZ     -79.9491
    Octopole Moments (Debye-Ang^2)
       XXX       9.3019    XXY      24.3596    XYY      35.9461
       YYY      85.4969    XXZ       1.0021    XYZ      -0.3680
       YYZ      -0.6600    XZZ     -22.4941    YZZ      10.9090
       ZZZ       0.0978
    Hexadecapole Moments (Debye-Ang^3)
      XXXX   -2318.0096   XXXY     -73.1415   XXYY    -686.1552
      XYYY    -201.9995   YYYY   -1632.9756   XXXZ       6.4048
      XXYZ      -0.1334   XYYZ      -0.6115   YYYZ       0.2000
      XXZZ    -446.1060   XYZZ     -33.6751   YYZZ    -257.9437
      XZZZ      -0.4678   YZZZ      -0.1363   ZZZZ     -76.4082
 -----------------------------------------------------------------
Archival summary:
1\1\nia1977.scinet.local\SP\ProcedureUnspecified\6-31G*\21117\rhickman\MonFeb717:46:282022MonFeb717:46:282022\0\\#,ProcedureUnspecified,6-31G*,\\0,1\F\C,1,1.32702\C,2,1.32567,1,128.002\H,3,1.08138,2,115.268,1,-179.992,0\F,2,1.32731,1,108.868,3,-179.991,0\C,3,1.45415,2,128.195,1,0.0323973,0\C,6,1.39063,3,123.671,2,-0.0579505,0\H,7,1.07812,6,119.673,3,0.0170343,0\C,7,1.39508,6,122.048,3,179.873,0\C,9,1.39829,7,118.673,6,0.267159,0\H,10,1.07802,9,120.21,7,179.545,0\C,10,1.37714,9,120.515,7,-0.173646,0\H,12,1.08022,10,120.522,9,179.94,0\C,12,1.39506,10,120.424,9,-0.00565105,0\C,14,1.4119,12,118.493,10,179.997,0\N,15,1.14722,14,178.865,12,-0.211292,0\C,9,1.45754,7,118.406,6,-179.855,0\H,17,1.08282,9,114.46,7,-4.13388,0\C,17,1.32799,9,126.541,7,175.39,0\H,19,1.0762,17,121.114,9,-179.828,0\H,19,1.0765,17,123.061,9,-0.102432,0\\\@

 Total job time:  30.38s(wall), 30.28s(cpu) 
 Mon Feb  7 17:46:28 2022

        *************************************************************
        *                                                           *
        *  Thank you very much for using Q-Chem.  Have a nice day.  *
        *                                                           *
        *************************************************************


