
Running Job 1 of 1 fragments/B029/conf-2/spe_input.inp
qchem fragments/B029/conf-2/spe_input.inp_168118.0 /gpfs/fs0/scratch/a/aspuru/rhickman/descriptor_computation/qchem168118/ 0
/scinet/niagara/software/commercial/qc52/exe/qcprog.exe_s fragments/B029/conf-2/spe_input.inp_168118.0 /gpfs/fs0/scratch/a/aspuru/rhickman/descriptor_computation/qchem168118/
                  Welcome to Q-Chem
     A Quantum Leap Into The Future Of Chemistry


 Q-Chem 5.2, Q-Chem, Inc., Pleasanton, CA (2019)

 License issued to: SRG Alan Aspuru-Guzik, University of Toronto

 Yihan Shao,  Zhengting Gan,  E. Epifanovsky,  A. T. B. Gilbert,  M. Wormit,  
 J. Kussmann,  A. W. Lange,  A. Behn,  Jia Deng,  Xintian Feng,  D. Ghosh,  
 M. Goldey,  P. R. Horn,  L. D. Jacobson,  I. Kaliman,  T. Kus,  A. Landau,  
 Jie Liu,  E. I. Proynov,  R. M. Richard,  R. P. Steele,  E. J. Sundstrom,  
 H. L. Woodcock III,  P. M. Zimmerman,  D. Zuev,  B. Albrecht,  E. Alguire,  
 S. A. Baeppler,  D. Barton,  Z. Benda,  Y. A. Bernard,  E. J. Berquist,  
 K. B. Bravaya,  H. Burton,  D. Casanova,  Chun-Min Chang,  Yunqing Chen,  
 A. Chien,  K. D. Closser,  M. P. Coons,  S. Coriani,  S. Dasgupta,  
 A. L. Dempwolff,  M. Diedenhofen,  Hainam Do,  R. G. Edgar,  Po-Tung Fang,  
 S. Faraji,  S. Fatehi,  Qingguo Feng,  K. D. Fenk,  J. Fosso-Tande,  
 J. Gayvert,  Qinghui Ge,  A. Ghysels,  G. Gidofalvi,  J. Gomes,  
 J. Gonthier,  A. Gunina,  D. Hait,  M. W. D. Hanson-Heine,  
 P. H. P. Harbach,  A. W. Hauser,  M. F. Herbst,  J. E. Herr,  
 E. G. Hohenstein,  Z. C. Holden,  Kerwin Hui,  B. C. Huynh,  T.-C. Jagau,  
 Hyunjun Ji,  B. Kaduk,  K. Khistyaev,  Jaehoon Kim,  P. Klunzinger,  K. Koh,  
 D. Kosenkov,  L. Koulias,  T. Kowalczyk,  C. M. Krauter,  A. Kunitsa,  
 Ka Un Lao,  A. Laurent,  K. V. Lawler,  Joonho Lee,  D. Lefrancois,  
 S. Lehtola,  D. S. Levine,  Yi-Pei Li,  You-Sheng Lin,  Fenglai Liu,  
 E. Livshits,  A. Luenser,  P. Manohar,  E. Mansoor,  S. F. Manzer,  
 Shan-Ping Mao,  Yuezhi Mao,  N. Mardirossian,  A. V. Marenich,  
 T. Markovich,  L. A. Martinez-Martinez,  S. A. Maurer,  N. J. Mayhall,  
 S. C. McKenzie,  J.-M. Mewes,  P. Morgante,  A. F. Morrison,  
 J. W. Mullinax,  K. Nanda,  T. S. Nguyen-Beck,  R. Olivares-Amaya,  
 J. A. Parkhill,  Zheng Pei,  T. M. Perrine,  F. Plasser,  P. Pokhilko,  
 S. Prager,  A. Prociuk,  E. Ramos,  D. R. Rehn,  F. Rob,  M. Scheurer,  
 M. Schneider,  N. Sergueev,  S. M. Sharada,  S. Sharma,  D. W. Small,  
 T. Stauch,  T. Stein,  Yu-Chuan Su,  A. J. W. Thom,  A. Tkatchenko,  
 T. Tsuchimochi,  N. M. Tubman,  L. Vogt,  M. L. Vidal,  O. Vydrov,  
 M. A. Watson,  J. Wenzel,  M. de Wergifosse,  T. A. Wesolowski,  A. White,  
 J. Witte,  A. Yamada,  Jun Yang,  K. Yao,  S. Yeganeh,  S. R. Yost,  
 Zhi-Qiang You,  A. Zech,  Igor Ying Zhang,  Xing Zhang,  Yan Zhao,  
 Ying Zhu,  B. R. Brooks,  G. K. L. Chan,  C. J. Cramer,  M. S. Gordon,  
 W. J. Hehre,  A. Klamt,  M. W. Schmidt,  C. D. Sherrill,  D. G. Truhlar,  
 A. Aspuru-Guzik,  R. Baer,  A. T. Bell,  N. A. Besley,  Jeng-Da Chai,  
 A. E. DePrince, III,  R. A. DiStasio Jr.,  A. Dreuw,  B. D. Dunietz,  
 T. R. Furlani,  Chao-Ping Hsu,  Yousung Jung,  Jing Kong,  D. S. Lambrecht,  
 WanZhen Liang,  C. Ochsenfeld,  V. A. Rassolov,  L. V. Slipchenko,  
 J. E. Subotnik,  T. Van Voorhis,  J. M. Herbert,  A. I. Krylov,  
 P. M. W. Gill,  M. Head-Gordon

 Contributors to earlier versions of Q-Chem not listed above: 
 R. D. Adamson,  B. Austin,  J. Baker,  G. J. O. Beran,  K. Brandhorst,  
 S. T. Brown,  E. F. C. Byrd,  A. K. Chakraborty,  C.-L. Cheng,  
 Siu Hung Chien,  D. M. Chipman,  D. L. Crittenden,  H. Dachsel,  
 R. J. Doerksen,  A. D. Dutoi,  L. Fusti-Molnar,  W. A. Goddard III,  
 A. Golubeva-Zadorozhnaya,  S. R. Gwaltney,  G. Hawkins,  A. Heyden,  
 S. Hirata,  G. Kedziora,  F. J. Keil,  C. Kelley,  Jihan Kim,  R. A. King,  
 R. Z. Khaliullin,  P. P. Korambath,  W. Kurlancheek,  A. M. Lee,  M. S. Lee,  
 S. V. Levchenko,  Ching Yeh Lin,  D. Liotard,  R. C. Lochan,  I. Lotan,  
 P. E. Maslen,  N. Nair,  D. P. O'Neill,  D. Neuhauser,  E. Neuscamman,  
 C. M. Oana,  R. Olson,  B. Peters,  R. Peverati,  P. A. Pieniazek,  
 Y. M. Rhee,  J. Ritchie,  M. A. Rohrdanz,  E. Rosta,  N. J. Russ,  
 H. F. Schaefer III,  N. E. Schultz,  N. Shenvi,  A. C. Simmonett,  A. Sodt,  
 D. Stuck,  K. S. Thanthiriwatte,  V. Vanovschi,  Tao Wang,  A. Warshel,  
 C. F. Williams,  Q. Wu,  X. Xu,  W. Zhang

 Please cite Q-Chem as follows:
 Y. Shao et al., Mol. Phys. 113, 184-215 (2015)
 DOI: 10.1080/00268976.2014.952696

 Q-Chem 5.2.1 for Intel X86 EM64T Linux

 Parts of Q-Chem use Armadillo 8.300.2 (Tropical Shenanigans).
 http://arma.sourceforge.net/

 Q-Chem begins on Mon Feb  7 18:32:58 2022  

Host: 
0

     Scratch files written to /gpfs/fs0/scratch/a/aspuru/rhickman/descriptor_computation/qchem168118//
 Jul1719 |scratch|qcdevops|jenkins|workspace|build_RNUM -1
Processing $rem in /scinet/niagara/software/commercial/qc52/config/preferences:
	 MEM_TOTAL  4000 
NAlpha2: 86
NElect   86
Mult     1

Checking the input file for inconsistencies... 	...done.

--------------------------------------------------------------
User input:
--------------------------------------------------------------
$molecule
0 1
C        -0.79871564600000   -2.83021186620000   -0.11165935440000
C        -0.39801049270000   -1.70714956870000    0.46772323180000
C        -0.97090555520000   -0.39065098370000    0.21024634010000
C        -2.33486638410000   -0.24525558570000   -0.06399326110000
N        -2.94282544650000    0.90830246650000   -0.24213013290000
C        -2.22551834150000    2.01522769090000   -0.13166290510000
C        -0.87161123210000    2.00951608970000    0.14961801920000
C        -0.21441390630000    0.78904833620000    0.30216384080000
C         1.22918286310000    0.80427993770000    0.54039698030000
C         2.11688125680000    0.01015827160000   -0.03412157380000
F         1.88433687580000   -0.93470094880000   -0.93332634750000
F         3.42562820040000    0.08472893650000    0.19310543240000
H        -0.34994464190000   -3.77794803030000    0.12935180200000
H        -1.56726799460000   -2.84154626790000   -0.86565980210000
H         0.40672705180000   -1.73132248930000    1.19265731070000
H        -2.96899736890000   -1.11961240080000   -0.12292115430000
H        -2.76513816010000    2.94175090290000   -0.27315751490000
H        -0.32162899930000    2.93487222980000    0.22823039700000
H         1.61656233300000    1.57102172620000    1.19508416530000
$end

$rem
BASIS = 6-31G*
GUI = 2
METHOD = B3LYP
PRINT_ORBITALS false
MOLDEN_FORMAT false
--------------------------------------------------------------
 ----------------------------------------------------------------
             Standard Nuclear Orientation (Angstroms)
    I     Atom           X                Y                Z
 ----------------------------------------------------------------
    1      C       0.0423060045     2.9190800206     0.0552447261
    2      C      -0.0816340755     1.6996098759     0.5602686343
    3      C       0.7884286116     0.5748193682     0.2354473590
    4      C       2.1486241013     0.7740176240    -0.0232505500
    5      N       3.0138024055    -0.1893595485    -0.2586524868
    6      C       2.5798021322    -1.4394017003    -0.2261821133
    7      C       1.2625485917    -1.7720807140     0.0314684751
    8      C       0.3337129714    -0.7539289067     0.2444271044
    9      C      -1.0655633637    -1.1255266092     0.4563222402
   10      C      -2.1149506226    -0.5306785082    -0.0855738248
   11      F      -2.1111128283     0.4958162257    -0.9232485190
   12      F      -3.3691084334    -0.9271677923     0.1141657354
   13      H      -0.6195068445     3.7167696112     0.3440018877
   14      H       0.7882417541     3.1585982029    -0.6833544576
   15      H      -0.8710756283     1.4877277292     1.2713271797
   16      H       2.5569580302     1.7756879438    -0.0194537645
   17      H       3.3245424480    -2.2011079097    -0.4127861008
   18      H       0.9480175030    -2.8044615520     0.0457635055
   19      H      -1.2614488516    -2.0009957876     1.0577819042
 ----------------------------------------------------------------
 Molecular Point Group                 C1    NOp =  1
 Largest Abelian Subgroup              C1    NOp =  1
 Nuclear Repulsion Energy =         660.45517240 hartrees
 There are       43 alpha and       43 beta electrons
 Requested basis set is 6-31G(d)
 There are 62 shells and 194 basis functions

 Total QAlloc Memory Limit   4000 MB
 Mega-Array Size       188 MB
 MEM_STATIC part       192 MB
 A cutoff of  1.0D-08 yielded   1441 shell pairs
 There are     15022 function pairs
 Smallest overlap matrix eigenvalue = 5.97E-04

 Scale SEOQF with 1.000000e-01/1.000000e-01/1.000000e+00

 Standard Electronic Orientation quadrupole field applied
 Nucleus-field energy     =     0.0000000076 hartrees
 Guess from superposition of atomic densities
 Warning:  Energy on first SCF cycle will be non-variational
 SAD guess density has 86.000000 electrons

 -----------------------------------------------------------------------
  General SCF calculation program by
  Eric Jon Sundstrom, Paul Horn, Yuezhi Mao, Dmitri Zuev, Alec White,
  David Stuck, Shaama M.S., Shane Yost, Joonho Lee, David Small,
  Daniel Levine, Susi Lehtola, Hugh Burton, Evgeny Epifanovsky,
  Bang C. Huynh
 -----------------------------------------------------------------------
 Exchange:     0.2000 Hartree-Fock + 0.0800 Slater + 0.7200 B88
 Correlation:  0.1900 VWN1RPA + 0.8100 LYP
 Using SG-1 standard quadrature grid
 A restricted SCF calculation will be
 performed using DIIS
 SCF converges when DIIS error is below 1.0e-05
 ---------------------------------------
  Cycle       Energy         DIIS error
 ---------------------------------------
    1    -604.2766481694      5.76e-02  
    2    -601.3574925538      6.26e-03  
    3    -601.2099140614      8.54e-03  
    4    -601.5360665914      1.40e-03  
    5    -601.5446897363      4.36e-04  
    6    -601.5454080852      2.03e-04  
    7    -601.5455973350      5.07e-05  
    8    -601.5456079663      1.88e-05  
    9    -601.5456096194      4.72e-06  Convergence criterion met
 ---------------------------------------
 SCF time:   CPU 23.88s  wall 24.00s 
 SCF   energy in the final basis set =     -601.5456096194
 Total energy in the final basis set =     -601.5456096194
 
 --------------------------------------------------------------
 
                    Orbital Energies (a.u.)
 --------------------------------------------------------------
 
 Alpha MOs
 -- Occupied --
-24.7491 -24.7446 -14.3257 -10.3694 -10.2240 -10.2202 -10.2199 -10.2132
-10.2070 -10.1996 -10.1969 -10.1858  -1.2938  -1.2330  -0.9501  -0.8515
 -0.8049  -0.7750  -0.7402  -0.6618  -0.6499  -0.6179  -0.5825  -0.5767
 -0.5476  -0.5276  -0.5033  -0.4885  -0.4691  -0.4548  -0.4487  -0.4445
 -0.4317  -0.4290  -0.4068  -0.4013  -0.3780  -0.3639  -0.3194  -0.2991
 -0.2550  -0.2523  -0.2360
 -- Virtual --
 -0.0439  -0.0272   0.0334   0.0437   0.0918   0.1142   0.1224   0.1341
  0.1543   0.1652   0.1690   0.1814   0.1949   0.2020   0.2444   0.2922
  0.3055   0.3313   0.3481   0.3736   0.3866   0.4017   0.4559   0.4672
  0.4745   0.5091   0.5130   0.5222   0.5340   0.5609   0.5722   0.5756
  0.5823   0.5968   0.6054   0.6086   0.6203   0.6534   0.6596   0.6712
  0.6812   0.7029   0.7077   0.7427   0.8040   0.8250   0.8293   0.8472
  0.8555   0.8607   0.8681   0.8798   0.8959   0.9100   0.9204   0.9513
  0.9562   0.9892   1.0073   1.0216   1.0470   1.0802   1.1095   1.1409
  1.1677   1.1848   1.1944   1.2058   1.2129   1.2443   1.2850   1.2862
  1.3269   1.3568   1.3874   1.4132   1.4328   1.4359   1.4595   1.4831
  1.4972   1.5169   1.5264   1.5628   1.5857   1.6575   1.6715   1.7008
  1.7165   1.7645   1.7815   1.7938   1.8205   1.8344   1.8523   1.8646
  1.8718   1.8969   1.9466   1.9714   1.9939   1.9973   2.0051   2.0312
  2.0498   2.0764   2.1107   2.1324   2.1718   2.1951   2.2237   2.2351
  2.2503   2.2883   2.2987   2.3381   2.3589   2.4079   2.4179   2.4573
  2.5207   2.5267   2.5597   2.5857   2.6113   2.6587   2.6954   2.7138
  2.7373   2.7703   2.8243   2.8449   2.9385   2.9766   3.0151   3.1116
  3.1326   3.2709   3.4449   4.0588   4.0732   4.1182   4.1361   4.1757
  4.2163   4.2817   4.3699   4.4013   4.7191   4.7874   5.2496
 --------------------------------------------------------------
 
          Ground-State Mulliken Net Atomic Charges

     Atom                 Charge (a.u.)
  ----------------------------------------
      1 C                    -0.337025
      2 C                    -0.130123
      3 C                     0.091175
      4 C                    -0.009340
      5 N                    -0.403752
      6 C                     0.039884
      7 C                    -0.189962
      8 C                     0.136154
      9 C                    -0.336816
     10 C                     0.574234
     11 F                    -0.223004
     12 F                    -0.241989
     13 H                     0.147360
     14 H                     0.149938
     15 H                     0.138806
     16 H                     0.143038
     17 H                     0.141388
     18 H                     0.135396
     19 H                     0.174638
  ----------------------------------------
  Sum of atomic charges =     0.000000

 -----------------------------------------------------------------
                    Cartesian Multipole Moments
 -----------------------------------------------------------------
    Charge (ESU x 10^10)
                 0.0000
    Dipole Moment (Debye)
         X      -1.4592      Y      -0.7785      Z       0.7249
       Tot       1.8058
    Quadrupole Moments (Debye-Ang)
        XX     -76.1076     XY      -1.1741     YY     -58.5076
        XZ      -1.0896     YZ      -0.5906     ZZ     -67.7131
    Octopole Moments (Debye-Ang^2)
       XXX     -64.0219    XXY      -3.4711    XYY      -6.1507
       YYY      -4.4134    XXZ       1.0829    XYZ      -1.3565
       YYZ      -2.7073    XZZ     -17.3959    YZZ      -2.0021
       ZZZ      -7.5387
    Hexadecapole Moments (Debye-Ang^3)
      XXXX   -1665.0621   XXXY     -13.4504   XXYY    -365.2673
      XYYY      -2.1606   YYYY    -822.5334   XXXZ      21.9731
      XXYZ       4.5803   XYYZ     -11.1760   YYYZ     -15.6188
      XXZZ    -273.9238   XYZZ       7.6138   YYZZ    -173.6065
      XZZZ      11.0707   YZZZ      -7.5200   ZZZZ    -126.6027
 -----------------------------------------------------------------
Archival summary:
1\1\nia1977.scinet.local\SP\ProcedureUnspecified\6-31G*\2197\rhickman\MonFeb718:33:222022MonFeb718:33:222022\0\\#,ProcedureUnspecified,6-31G*,\\0,1\F\C,1,1.32492\C,2,1.32239,1,127.25\H,3,1.08008,2,116.672,1,-175.279,0\F,2,1.33042,1,109.18,3,-178.004,0\C,3,1.4632,2,125.824,1,0.608812,0\C,6,1.39453,3,118.272,2,-136.404,0\H,7,1.07933,6,120.147,3,-1.26404,0\C,7,1.38283,6,119.162,3,177.326,0\H,9,1.08151,7,121.243,6,-178.954,0\N,9,1.32364,7,122.964,6,1.21049,0\C,11,1.31607,9,118.123,7,0.572317,0\H,12,1.08171,11,115.488,9,177.538,0\C,12,1.39883,11,124.616,9,-1.29919,0\C,14,1.45865,12,120.756,11,176.511,0\H,15,1.08338,14,115.467,12,-145.304,0\C,15,1.32571,14,124.661,12,34.4064,0\H,17,1.07596,15,121.481,14,-178.943,0\H,17,1.07672,15,122.054,14,2.83651,0\\\@

 Total job time:  24.12s(wall), 24.03s(cpu) 
 Mon Feb  7 18:33:22 2022

        *************************************************************
        *                                                           *
        *  Thank you very much for using Q-Chem.  Have a nice day.  *
        *                                                           *
        *************************************************************


