
Running Job 1 of 1 fragments/C058/conf-9/spe_input.inp
qchem fragments/C058/conf-9/spe_input.inp_263814.0 /gpfs/fs0/scratch/a/aspuru/rhickman/descriptor_computation/qchem263814/ 0
/scinet/niagara/software/commercial/qc52/exe/qcprog.exe_s fragments/C058/conf-9/spe_input.inp_263814.0 /gpfs/fs0/scratch/a/aspuru/rhickman/descriptor_computation/qchem263814/
                  Welcome to Q-Chem
     A Quantum Leap Into The Future Of Chemistry


 Q-Chem 5.2, Q-Chem, Inc., Pleasanton, CA (2019)

 License issued to: SRG Alan Aspuru-Guzik, University of Toronto

 Yihan Shao,  Zhengting Gan,  E. Epifanovsky,  A. T. B. Gilbert,  M. Wormit,  
 J. Kussmann,  A. W. Lange,  A. Behn,  Jia Deng,  Xintian Feng,  D. Ghosh,  
 M. Goldey,  P. R. Horn,  L. D. Jacobson,  I. Kaliman,  T. Kus,  A. Landau,  
 Jie Liu,  E. I. Proynov,  R. M. Richard,  R. P. Steele,  E. J. Sundstrom,  
 H. L. Woodcock III,  P. M. Zimmerman,  D. Zuev,  B. Albrecht,  E. Alguire,  
 S. A. Baeppler,  D. Barton,  Z. Benda,  Y. A. Bernard,  E. J. Berquist,  
 K. B. Bravaya,  H. Burton,  D. Casanova,  Chun-Min Chang,  Yunqing Chen,  
 A. Chien,  K. D. Closser,  M. P. Coons,  S. Coriani,  S. Dasgupta,  
 A. L. Dempwolff,  M. Diedenhofen,  Hainam Do,  R. G. Edgar,  Po-Tung Fang,  
 S. Faraji,  S. Fatehi,  Qingguo Feng,  K. D. Fenk,  J. Fosso-Tande,  
 J. Gayvert,  Qinghui Ge,  A. Ghysels,  G. Gidofalvi,  J. Gomes,  
 J. Gonthier,  A. Gunina,  D. Hait,  M. W. D. Hanson-Heine,  
 P. H. P. Harbach,  A. W. Hauser,  M. F. Herbst,  J. E. Herr,  
 E. G. Hohenstein,  Z. C. Holden,  Kerwin Hui,  B. C. Huynh,  T.-C. Jagau,  
 Hyunjun Ji,  B. Kaduk,  K. Khistyaev,  Jaehoon Kim,  P. Klunzinger,  K. Koh,  
 D. Kosenkov,  L. Koulias,  T. Kowalczyk,  C. M. Krauter,  A. Kunitsa,  
 Ka Un Lao,  A. Laurent,  K. V. Lawler,  Joonho Lee,  D. Lefrancois,  
 S. Lehtola,  D. S. Levine,  Yi-Pei Li,  You-Sheng Lin,  Fenglai Liu,  
 E. Livshits,  A. Luenser,  P. Manohar,  E. Mansoor,  S. F. Manzer,  
 Shan-Ping Mao,  Yuezhi Mao,  N. Mardirossian,  A. V. Marenich,  
 T. Markovich,  L. A. Martinez-Martinez,  S. A. Maurer,  N. J. Mayhall,  
 S. C. McKenzie,  J.-M. Mewes,  P. Morgante,  A. F. Morrison,  
 J. W. Mullinax,  K. Nanda,  T. S. Nguyen-Beck,  R. Olivares-Amaya,  
 J. A. Parkhill,  Zheng Pei,  T. M. Perrine,  F. Plasser,  P. Pokhilko,  
 S. Prager,  A. Prociuk,  E. Ramos,  D. R. Rehn,  F. Rob,  M. Scheurer,  
 M. Schneider,  N. Sergueev,  S. M. Sharada,  S. Sharma,  D. W. Small,  
 T. Stauch,  T. Stein,  Yu-Chuan Su,  A. J. W. Thom,  A. Tkatchenko,  
 T. Tsuchimochi,  N. M. Tubman,  L. Vogt,  M. L. Vidal,  O. Vydrov,  
 M. A. Watson,  J. Wenzel,  M. de Wergifosse,  T. A. Wesolowski,  A. White,  
 J. Witte,  A. Yamada,  Jun Yang,  K. Yao,  S. Yeganeh,  S. R. Yost,  
 Zhi-Qiang You,  A. Zech,  Igor Ying Zhang,  Xing Zhang,  Yan Zhao,  
 Ying Zhu,  B. R. Brooks,  G. K. L. Chan,  C. J. Cramer,  M. S. Gordon,  
 W. J. Hehre,  A. Klamt,  M. W. Schmidt,  C. D. Sherrill,  D. G. Truhlar,  
 A. Aspuru-Guzik,  R. Baer,  A. T. Bell,  N. A. Besley,  Jeng-Da Chai,  
 A. E. DePrince, III,  R. A. DiStasio Jr.,  A. Dreuw,  B. D. Dunietz,  
 T. R. Furlani,  Chao-Ping Hsu,  Yousung Jung,  Jing Kong,  D. S. Lambrecht,  
 WanZhen Liang,  C. Ochsenfeld,  V. A. Rassolov,  L. V. Slipchenko,  
 J. E. Subotnik,  T. Van Voorhis,  J. M. Herbert,  A. I. Krylov,  
 P. M. W. Gill,  M. Head-Gordon

 Contributors to earlier versions of Q-Chem not listed above: 
 R. D. Adamson,  B. Austin,  J. Baker,  G. J. O. Beran,  K. Brandhorst,  
 S. T. Brown,  E. F. C. Byrd,  A. K. Chakraborty,  C.-L. Cheng,  
 Siu Hung Chien,  D. M. Chipman,  D. L. Crittenden,  H. Dachsel,  
 R. J. Doerksen,  A. D. Dutoi,  L. Fusti-Molnar,  W. A. Goddard III,  
 A. Golubeva-Zadorozhnaya,  S. R. Gwaltney,  G. Hawkins,  A. Heyden,  
 S. Hirata,  G. Kedziora,  F. J. Keil,  C. Kelley,  Jihan Kim,  R. A. King,  
 R. Z. Khaliullin,  P. P. Korambath,  W. Kurlancheek,  A. M. Lee,  M. S. Lee,  
 S. V. Levchenko,  Ching Yeh Lin,  D. Liotard,  R. C. Lochan,  I. Lotan,  
 P. E. Maslen,  N. Nair,  D. P. O'Neill,  D. Neuhauser,  E. Neuscamman,  
 C. M. Oana,  R. Olson,  B. Peters,  R. Peverati,  P. A. Pieniazek,  
 Y. M. Rhee,  J. Ritchie,  M. A. Rohrdanz,  E. Rosta,  N. J. Russ,  
 H. F. Schaefer III,  N. E. Schultz,  N. Shenvi,  A. C. Simmonett,  A. Sodt,  
 D. Stuck,  K. S. Thanthiriwatte,  V. Vanovschi,  Tao Wang,  A. Warshel,  
 C. F. Williams,  Q. Wu,  X. Xu,  W. Zhang

 Please cite Q-Chem as follows:
 Y. Shao et al., Mol. Phys. 113, 184-215 (2015)
 DOI: 10.1080/00268976.2014.952696

 Q-Chem 5.2.1 for Intel X86 EM64T Linux

 Parts of Q-Chem use Armadillo 8.300.2 (Tropical Shenanigans).
 http://arma.sourceforge.net/

 Q-Chem begins on Mon Feb  7 09:24:11 2022  

Host: 
0

     Scratch files written to /gpfs/fs0/scratch/a/aspuru/rhickman/descriptor_computation/qchem263814//
 Jul1719 |scratch|qcdevops|jenkins|workspace|build_RNUM -1
Processing $rem in /scinet/niagara/software/commercial/qc52/config/preferences:
	 MEM_TOTAL  4000 
NAlpha2: 166
NElect   166
Mult     1

Checking the input file for inconsistencies... 	...done.

--------------------------------------------------------------
User input:
--------------------------------------------------------------
$molecule
0 1
C         0.23620991650000   -1.47077480680000   -3.69936583220000
C         0.72933796610000   -0.31487065280000   -3.27824362650000
C         0.44847478350000    0.27902619280000   -1.96865552140000
C        -0.83093179030000    0.18120551690000   -1.43424499750000
C        -1.18774796220000    0.76093456790000   -0.22578753980000
C        -2.57153354540000    0.51702570960000    0.30779254510000
C        -2.66595157890000   -0.89890670110000    0.88913664740000
C        -4.01332207670000   -1.18740784740000    1.55080729860000
C        -5.22497660710000   -1.09172428510000    0.62049472370000
C        -5.17444486490000   -2.00772810170000   -0.60319382140000
C        -5.12379542560000   -3.48793748470000   -0.24392653640000
C        -0.21466387430000    1.47807865920000    0.47239648370000
C        -0.46733791290000    2.17464495450000    1.74314045310000
C        -1.38166208250000    3.11376241120000    1.92529900900000
C         1.07644486700000    1.55325498810000   -0.04748080570000
C         1.43612578630000    0.96761536850000   -1.24821839870000
C         2.84240802220000    1.05251458440000   -1.78894766230000
C         3.94536994130000    1.22303619990000   -0.74338571720000
C         4.01050953110000    0.04323338100000    0.22366010110000
C         5.08398047520000    0.24570008690000    1.29035864820000
C         5.21462651890000   -0.93838795120000    2.24878658380000
C         4.00486841910000   -1.10516099460000    3.16111943200000
H         0.45518875370000   -1.85863048260000   -4.67986121820000
H        -0.39145842390000   -2.08402119440000   -3.07412861310000
H         1.37846934320000    0.25695691690000   -3.92933008300000
H        -1.58539315120000   -0.34785501330000   -1.99931501170000
H        -3.29263658420000    0.62851659060000   -0.50372349370000
H        -2.81760562600000    1.23230355810000    1.09094790920000
H        -1.88116196460000   -1.01511100130000    1.64163736250000
H        -2.46966629550000   -1.62961828870000    0.10316054110000
H        -4.15919409080000   -0.47806621630000    2.36994528000000
H        -3.97704518500000   -2.18589322460000    1.99107196390000
H        -5.33597394770000   -0.06002378410000    0.28033655560000
H        -6.11758216960000   -1.33693851740000    1.20228688180000
H        -4.31147566250000   -1.75402735500000   -1.22087049890000
H        -6.06848048330000   -1.82069198500000   -1.20382851470000
H        -4.19539208570000   -3.73551056890000    0.26417226620000
H        -5.19030456690000   -4.09726458940000   -1.14280038190000
H        -5.95417985370000   -3.74936224710000    0.40880175780000
H         0.20448798220000    1.91288171090000    2.55286898380000
H        -2.03514022840000    3.43284678250000    1.12973077460000
H        -1.50183446350000    3.61429772070000    2.87167386720000
H         1.80770069990000    2.11101589500000    0.51803817770000
H         2.89073293230000    1.89348808920000   -2.49037778060000
H         3.05295696890000    0.14196109800000   -2.35463537760000
H         3.80195645680000    2.15054542380000   -0.18616073670000
H         4.90142909560000    1.31039283810000   -1.26640775150000
H         4.22584876360000   -0.86935440530000   -0.33778039940000
H         3.03624434270000   -0.08250109430000    0.69681498990000
H         4.85731731360000    1.14739092050000    1.86498441780000
H         6.04565711440000    0.40542506870000    0.79537539360000
H         6.10351034260000   -0.79047542670000    2.86716538210000
H         5.36309219190000   -1.85393091660000    1.67164380380000
H         3.82454106010000   -0.19107645610000    3.72318122670000
H         4.17412242180000   -1.91387746420000    3.86869297720000
H         3.11170659080000   -1.33901017780000    2.58764822140000
$end

$rem
BASIS = 6-31G*
GUI = 2
METHOD = B3LYP
PRINT_ORBITALS false
MOLDEN_FORMAT false
--------------------------------------------------------------
 ----------------------------------------------------------------
             Standard Nuclear Orientation (Angstroms)
    I     Atom           X                Y                Z
 ----------------------------------------------------------------
    1      C      -0.2621265127     3.9074838985    -0.8259907736
    2      C       0.4687056935     3.3652078348     0.1375726939
    3      C       0.3865353047     1.9621107030     0.5513178588
    4      C      -0.8533562338     1.3357922054     0.6007019266
    5      C      -1.0187138925     0.0275983050     1.0308862405
    6      C      -2.3890191972    -0.5855488121     0.9575666467
    7      C      -2.7192644416    -0.9562366900    -0.4933878315
    8      C      -4.0548050210    -1.6856506489    -0.6373838650
    9      C      -5.2789477930    -0.8921136911    -0.1742239549
   10      C      -5.4792454093     0.4536065848    -0.8727566374
   11      C      -5.6931036945     0.3241640100    -2.3761419569
   12      C       0.1143481394    -0.6794089497     1.4370394064
   13      C       0.0772267046    -2.0569758798     1.9515978204
   14      C      -0.6265503220    -2.4577075090     2.9981273623
   15      C       1.3622129928    -0.0629926592     1.3612111593
   16      C       1.5297015551     1.2387326626     0.9235198719
   17      C       2.8909944271     1.8845513586     0.8397006082
   18      C       4.0668509277     0.9282430161     0.6356461017
   19      C       3.9614910309     0.1569101813    -0.6778608159
   20      C       5.1158817353    -0.8275991975    -0.8490385298
   21      C       5.0733400579    -1.5839440560    -2.1771385408
   22      C       3.9110608855    -2.5659826672    -2.2687159699
   23      H      -0.1811520116     4.9503324948    -1.0822423952
   24      H      -0.9574707957     3.3266124251    -1.4091244780
   25      H       1.1755458808     3.9796099854     0.6808579182
   26      H      -1.7280861225     1.9033386945     0.3158164847
   27      H      -3.1225203253     0.1325584876     1.3280745299
   28      H      -2.4453225536    -1.4851029568     1.5684172559
   29      H      -1.9278334476    -1.6098214902    -0.8703750927
   30      H      -2.7148658539    -0.0560692243    -1.1097521413
   31      H      -4.0119517208    -2.6107905283    -0.0562547701
   32      H      -4.1851235701    -1.9676977384    -1.6840875250
   33      H      -5.2094130126    -0.7202786406     0.9019133702
   34      H      -6.1655254255    -1.5085775487    -0.3454233678
   35      H      -4.6222137936     1.1014977238    -0.6821306350
   36      H      -6.3549278871     0.9373262993    -0.4320303429
   37      H      -4.8009677151    -0.0563540277    -2.8667426131
   38      H      -5.9294992090     1.2939644546    -2.8089022079
   39      H      -6.5176046116    -0.3541834318    -2.5858522732
   40      H       0.7334205421    -2.7554150000     1.4445250787
   41      H      -1.2528865418    -1.7800852052     3.5551805841
   42      H      -0.5910988043    -3.4748429592     3.3513709542
   43      H       2.2197675070    -0.6373214024     1.6780562204
   44      H       3.0581790588     2.4547748305     1.7608251571
   45      H       2.8879497754     2.5957559310     0.0104721186
   46      H       4.1384086668     0.2288646551     1.4705651785
   47      H       4.9887078703     1.5159533307     0.6326964123
   48      H       3.9630013136     0.8646628653    -1.5106193317
   49      H       3.0114207667    -0.3776183337    -0.7007327248
   50      H       5.1019729752    -1.5477326417    -0.0269486975
   51      H       6.0588576170    -0.2777484068    -0.7873696976
   52      H       6.0095367320    -2.1353482332    -2.2949270207
   53      H       5.0078399381    -0.8662746835    -2.9981228111
   54      H       3.9441684912    -3.2714352352    -1.4409342826
   55      H       3.9635638824    -3.1275695380    -3.1988735852
   56      H       2.9568207625    -2.0464249482    -2.2408181965
 ----------------------------------------------------------------
 Molecular Point Group                 C1    NOp =  1
 Largest Abelian Subgroup              C1    NOp =  1
 Nuclear Repulsion Energy =        1769.47489185 hartrees
 There are       83 alpha and       83 beta electrons
 Requested basis set is 6-31G(d)
 There are 156 shells and 398 basis functions

 Total QAlloc Memory Limit   4000 MB
 Mega-Array Size       188 MB
 MEM_STATIC part       192 MB
 A cutoff of  1.0D-08 yielded   5435 shell pairs
 There are     38351 function pairs
 Smallest overlap matrix eigenvalue = 2.79E-04

 Scale SEOQF with 1.000000e-02/1.000000e-01/1.000000e-01

 Standard Electronic Orientation quadrupole field applied
 Nucleus-field energy     =     0.0000000078 hartrees
 Guess from superposition of atomic densities
 Warning:  Energy on first SCF cycle will be non-variational
 SAD guess density has 166.000001 electrons

 -----------------------------------------------------------------------
  General SCF calculation program by
  Eric Jon Sundstrom, Paul Horn, Yuezhi Mao, Dmitri Zuev, Alec White,
  David Stuck, Shaama M.S., Shane Yost, Joonho Lee, David Small,
  Daniel Levine, Susi Lehtola, Hugh Burton, Evgeny Epifanovsky,
  Bang C. Huynh
 -----------------------------------------------------------------------
 Exchange:     0.2000 Hartree-Fock + 0.0800 Slater + 0.7200 B88
 Correlation:  0.1900 VWN1RPA + 0.8100 LYP
 Using SG-1 standard quadrature grid
 A restricted SCF calculation will be
 performed using DIIS
 SCF converges when DIIS error is below 1.0e-05
 ---------------------------------------
  Cycle       Energy         DIIS error
 ---------------------------------------
    1    -863.2742404723      3.97e-02  
    2    -858.3468913460      4.51e-03  
    3    -858.3182022788      4.72e-03  
    4    -858.7913964595      4.07e-04  
    5    -858.7941429995      1.76e-04  
    6    -858.7946751782      8.31e-05  
    7    -858.7948099154      2.66e-05  
    8    -858.7948243570      5.27e-06  Convergence criterion met
 ---------------------------------------
 SCF time:   CPU 122.91s  wall 124.00s 
 SCF   energy in the final basis set =     -858.7948243570
 Total energy in the final basis set =     -858.7948243570
 
 --------------------------------------------------------------
 
                    Orbital Energies (a.u.)
 --------------------------------------------------------------
 
 Alpha MOs
 -- Occupied --
-10.1867 -10.1853 -10.1848 -10.1843 -10.1836 -10.1823 -10.1794 -10.1770
-10.1765 -10.1753 -10.1749 -10.1741 -10.1727 -10.1719 -10.1716 -10.1716
-10.1700 -10.1700 -10.1697 -10.1679 -10.1662 -10.1648  -0.8664  -0.8176
 -0.8048  -0.8014  -0.7817  -0.7698  -0.7579  -0.7374  -0.7138  -0.7073
 -0.6840  -0.6548  -0.6364  -0.6251  -0.6065  -0.5895  -0.5781  -0.5631
 -0.5598  -0.5406  -0.5315  -0.4975  -0.4773  -0.4699  -0.4667  -0.4634
 -0.4545  -0.4526  -0.4376  -0.4320  -0.4285  -0.4225  -0.4169  -0.4156
 -0.4091  -0.4001  -0.3967  -0.3884  -0.3828  -0.3755  -0.3686  -0.3629
 -0.3594  -0.3549  -0.3540  -0.3478  -0.3399  -0.3359  -0.3322  -0.3245
 -0.3226  -0.3172  -0.3118  -0.3100  -0.3050  -0.3043  -0.3005  -0.2878
 -0.2606  -0.2303  -0.2122
 -- Virtual --
 -0.0248   0.0077   0.0208   0.0592   0.0792   0.0897   0.1032   0.1067
  0.1143   0.1165   0.1236   0.1297   0.1359   0.1389   0.1426   0.1491
  0.1506   0.1567   0.1582   0.1617   0.1682   0.1708   0.1734   0.1778
  0.1816   0.1831   0.1888   0.1918   0.2002   0.2034   0.2048   0.2086
  0.2129   0.2140   0.2166   0.2201   0.2236   0.2265   0.2318   0.2409
  0.2424   0.2480   0.2530   0.2580   0.2638   0.2699   0.2815   0.2898
  0.2967   0.3023   0.3142   0.3245   0.3287   0.3436   0.3536   0.3735
  0.3845   0.4050   0.4243   0.4878   0.4902   0.5071   0.5105   0.5116
  0.5167   0.5167   0.5261   0.5297   0.5339   0.5390   0.5435   0.5509
  0.5520   0.5607   0.5633   0.5723   0.5786   0.5820   0.5912   0.5952
  0.5998   0.6085   0.6175   0.6299   0.6336   0.6463   0.6500   0.6543
  0.6585   0.6654   0.6723   0.6780   0.6870   0.6917   0.6957   0.7016
  0.7085   0.7107   0.7142   0.7211   0.7222   0.7312   0.7432   0.7569
  0.7666   0.7812   0.7924   0.7990   0.8190   0.8277   0.8347   0.8381
  0.8471   0.8552   0.8601   0.8632   0.8657   0.8708   0.8747   0.8774
  0.8858   0.8877   0.8889   0.8980   0.8997   0.9065   0.9096   0.9159
  0.9201   0.9238   0.9256   0.9302   0.9471   0.9492   0.9553   0.9587
  0.9658   0.9707   0.9744   0.9776   0.9846   0.9871   0.9882   0.9929
  1.0003   1.0047   1.0067   1.0144   1.0258   1.0354   1.0443   1.0506
  1.0721   1.0809   1.0876   1.0984   1.1207   1.1309   1.1478   1.1606
  1.1690   1.1981   1.2057   1.2112   1.2310   1.2478   1.2606   1.2841
  1.2891   1.3019   1.3202   1.3456   1.3919   1.3959   1.4084   1.4480
  1.4508   1.4644   1.4933   1.4975   1.5116   1.5163   1.5279   1.5387
  1.5504   1.5758   1.5979   1.6099   1.6204   1.6355   1.6474   1.6545
  1.6584   1.6832   1.6949   1.6999   1.7094   1.7441   1.7694   1.7795
  1.7987   1.8044   1.8169   1.8302   1.8363   1.8475   1.8608   1.8687
  1.8815   1.8986   1.9032   1.9156   1.9398   1.9478   1.9509   1.9589
  1.9723   1.9763   1.9859   1.9911   1.9946   1.9987   2.0061   2.0185
  2.0236   2.0394   2.0432   2.0469   2.0587   2.0642   2.0791   2.0875
  2.0991   2.1166   2.1516   2.1616   2.1794   2.1844   2.1887   2.2035
  2.2247   2.2485   2.2525   2.2595   2.2768   2.2888   2.3048   2.3094
  2.3249   2.3314   2.3417   2.3477   2.3502   2.3642   2.3760   2.3894
  2.3977   2.4027   2.4158   2.4275   2.4365   2.4543   2.4631   2.4649
  2.4727   2.4842   2.4984   2.5213   2.5421   2.5671   2.5894   2.6014
  2.6290   2.6342   2.6563   2.6696   2.6962   2.7180   2.7309   2.7471
  2.7611   2.7753   2.7895   2.8072   2.8301   2.8414   2.8923   2.9304
  2.9686   3.0480   3.0917   3.2382   3.4779   4.1219   4.1349   4.1393
  4.1501   4.1542   4.1776   4.1960   4.2236   4.2391   4.2915   4.3309
  4.3566   4.3658   4.4001   4.4419   4.4596   4.4786   4.5150   4.5383
  4.5776   4.5998   4.8233
 --------------------------------------------------------------
 
          Ground-State Mulliken Net Atomic Charges

     Atom                 Charge (a.u.)
  ----------------------------------------
      1 C                    -0.336351
      2 C                    -0.135803
      3 C                     0.099935
      4 C                    -0.255327
      5 C                     0.131435
      6 C                    -0.352984
      7 C                    -0.256302
      8 C                    -0.258908
      9 C                    -0.255719
     10 C                    -0.254038
     11 C                    -0.445014
     12 C                     0.086452
     13 C                    -0.151701
     14 C                    -0.322101
     15 C                    -0.258514
     16 C                     0.135411
     17 C                    -0.349585
     18 C                    -0.266849
     19 C                    -0.257968
     20 C                    -0.248091
     21 C                    -0.248859
     22 C                    -0.445342
     23 H                     0.140113
     24 H                     0.143200
     25 H                     0.136921
     26 H                     0.122421
     27 H                     0.143302
     28 H                     0.146592
     29 H                     0.134688
     30 H                     0.137428
     31 H                     0.128783
     32 H                     0.131742
     33 H                     0.132579
     34 H                     0.126118
     35 H                     0.133539
     36 H                     0.130318
     37 H                     0.148367
     38 H                     0.141667
     39 H                     0.141931
     40 H                     0.138597
     41 H                     0.147805
     42 H                     0.140590
     43 H                     0.122250
     44 H                     0.147401
     45 H                     0.148055
     46 H                     0.136158
     47 H                     0.130511
     48 H                     0.127710
     49 H                     0.149604
     50 H                     0.123520
     51 H                     0.125312
     52 H                     0.128090
     53 H                     0.129663
     54 H                     0.138810
     55 H                     0.141455
     56 H                     0.150983
  ----------------------------------------
  Sum of atomic charges =     0.000000

 -----------------------------------------------------------------
                    Cartesian Multipole Moments
 -----------------------------------------------------------------
    Charge (ESU x 10^10)
                 0.0000
    Dipole Moment (Debye)
         X       0.1948      Y      -0.0359      Z       0.0003
       Tot       0.1981
    Quadrupole Moments (Debye-Ang)
        XX    -134.3875     XY       1.0120     YY    -133.9729
        XZ       0.5419     YZ      -2.2442     ZZ    -139.5246
    Octopole Moments (Debye-Ang^2)
       XXX      -0.3725    XXY       5.0135    XYY       7.7562
       YYY       7.1266    XXZ       3.2424    XYZ       4.8710
       YYZ       2.2897    XZZ      -3.1950    YZZ      -5.2529
       ZZZ      -2.6019
    Hexadecapole Moments (Debye-Ang^3)
      XXXX   -9805.1771   XXXY      18.3557   XXYY   -2087.4335
      XYYY      15.9749   YYYY   -2668.7597   XXXZ       2.7693
      XXYZ       2.1769   XYYZ      17.1550   YYYZ     -49.4058
      XXZZ   -1961.3843   XYZZ      10.5415   YYZZ    -753.9261
      XZZZ     -34.5343   YZZZ     -11.3632   ZZZZ   -1877.2421
 -----------------------------------------------------------------
Archival summary:
1\1\nia0231.scinet.local\SP\ProcedureUnspecified\6-31G*\2234\rhickman\MonFeb709:26:152022MonFeb709:26:152022\0\\#,ProcedureUnspecified,6-31G*,\\0,1\C\C,1,1.387\H,2,1.08094,1,118.717\C,2,1.38998,1,122.844,3,178.333,0\C,1,1.39594,2,118.11,3,-177.951,0\C,5,1.39387,1,119.134,2,-1.73355,0\H,6,1.07965,5,117.379,1,-179.707,0\C,6,1.38352,5,122.798,1,1.35621,0\C,4,1.46513,2,119.444,1,-177.453,0\H,9,1.08272,4,115.999,2,140.589,0\C,9,1.32538,4,124.486,2,-38.7229,0\H,11,1.07692,9,121.852,4,178.732,0\H,11,1.07748,9,121.92,4,-2.40801,0\C,5,1.471,1,123.752,2,178.153,0\H,14,1.08422,5,115.113,1,126.294,0\C,14,1.3233,5,125.006,1,-57.3994,0\H,16,1.07731,14,121.852,5,-177.95,0\H,16,1.07786,14,121.829,5,0.901546,0\C,1,1.50302,2,118.576,3,5.76261,0\H,19,1.08881,1,110.905,2,-164.035,0\H,19,1.09132,1,109.134,2,-44.4775,0\C,8,1.50905,6,121.968,5,-179.562,0\H,22,1.09245,8,108.558,6,148.243,0\H,22,1.09616,8,108.272,6,-95.4183,0\C,22,1.52931,8,115.683,6,26.7827,0\H,25,1.09149,22,110.427,8,-61.047,0\H,25,1.09327,22,108.212,8,-177.772,0\C,25,1.52688,22,112.186,8,61.8014,0\H,28,1.09036,25,109.015,22,-56.4642,0\H,28,1.09289,25,109.163,22,60.8397,0\C,28,1.52682,25,111.716,22,-178.115,0\H,31,1.09299,28,109.323,25,60.1949,0\H,31,1.09332,28,108.753,25,-56.8497,0\C,31,1.52896,28,113.286,25,-177.919,0\H,34,1.09241,31,109.238,28,53.575,0\H,34,1.09288,31,108.625,28,170.637,0\C,34,1.52436,31,113.084,28,-68.5253,0\H,37,1.08687,34,111.095,31,64.0583,0\H,37,1.08781,34,110.313,31,-176.049,0\H,37,1.08811,34,110.412,31,-56.354,0\C,19,1.53354,1,109.944,2,75.7683,0\H,41,1.09097,19,109.526,1,-61.2075,0\H,41,1.09346,19,108.35,1,55.4034,0\C,41,1.52854,19,113.119,1,175.542,0\H,44,1.09184,41,108.534,19,-176.503,0\H,44,1.09336,41,108.63,19,-60.2671,0\C,44,1.5306,41,115.017,19,60.8909,0\H,47,1.09199,44,109.2,41,-64.9283,0\H,47,1.09332,44,107.989,41,178.895,0\C,47,1.52939,44,115.006,41,57.5047,0\H,50,1.09115,47,109.865,44,-61.1616,0\H,50,1.09318,47,108.066,44,-177.835,0\C,50,1.52403,47,113.216,44,61.537,0\H,53,1.08692,50,111.089,47,-65.8203,0\H,53,1.08797,50,110.314,47,174.309,0\H,53,1.08809,50,110.451,47,54.5831,0\\\@

 Total job time:  123.67s(wall), 123.34s(cpu) 
 Mon Feb  7 09:26:15 2022

        *************************************************************
        *                                                           *
        *  Thank you very much for using Q-Chem.  Have a nice day.  *
        *                                                           *
        *************************************************************


