
Running Job 1 of 1 tidas/B050/conf-2/spe_input.inp
qchem tidas/B050/conf-2/spe_input.inp_134533.0 /home/a/aspuru/seifridm/acdc_laser/descriptor_computation/qchem134533/ 0
/gpfs/fs1/scinet/niagara/software/commercial/qc54/exe/qcprog.exe_s tidas/B050/conf-2/spe_input.inp_134533.0 /home/a/aspuru/seifridm/acdc_laser/descriptor_computation/qchem134533/
                  Welcome to Q-Chem
     A Quantum Leap Into The Future Of Chemistry


 Q-Chem 5.4, Q-Chem, Inc., Pleasanton, CA (2021)

 License issued to: SRG Alan Aspuru-Guzik, University of Toronto

 E. Epifanovsky,  A. T. B. Gilbert,  Xintian Feng,  Joonho Lee,  Yuezhi Mao,  
 N. Mardirossian,  P. Pokhilko,  A. White,  M. Wormit,  M. P. Coons,  
 A. L. Dempwolff,  Zhengting Gan,  D. Hait,  P. R. Horn,  L. D. Jacobson,  
 I. Kaliman,  J. Kussmann,  A. W. Lange,  Ka Un Lao,  D. S. Levine,  Jie Liu,  
 S. C. McKenzie,  A. F. Morrison,  K. Nanda,  F. Plasser,  D. R. Rehn,  
 M. L. Vidal,  Zhi-Qiang You,  Ying Zhu,  B. Alam,  B. Albrecht,  
 A. Aldossary,  E. Alguire,  J. H. Andersen,  D. Barton,  K. Begam,  A. Behn,  
 Y. A. Bernard,  E. J. Berquist,  H. Burton,  A. Carreras,  K. Carter-Fenk,  
 Romit Chakraborty,  A. D. Chien,  K. D. Closser,  V. Cofer-Shabica,  
 S. Dasgupta,  Jia Deng,  M. de Wergifosse,  M. Diedenhofen,  Hainam Do,  
 S. Ehlert,  Po-Tung Fang,  S. Fatehi,  Qingguo Feng,  T. Friedhoff,  
 J. Gayvert,  Qinghui Ge,  G. Gidofalvi,  M. Goldey,  J. Gomes,  
 C. Gonzalez-Espinoza,  S. Gulania,  A. Gunina,  M. W. D. Hanson-Heine,  
 P. H. P. Harbach,  A. W. Hauser,  M. F. Herbst,  M. Hernandez Vera,  
 M. Hodecker,  Z. C. Holden,  S. Houck,  Xunkun Huang,  Kerwin Hui,  
 B. C. Huynh,  M. Ivanov,  Hyunjun Ji,  Hanjie Jiang,  B. Kaduk,  S. Kaehler,  
 K. Khistyaev,  Jaehoon Kim,  P. Klunzinger,  Z. Koczor-Benda,  
 Joong Hoon Koh,  D. Kosenkov,  L. Koulias,  T. Kowalczyk,  C. M. Krauter,  
 K. Kue,  A. Kunitsa,  T. Kus,  A. Landau,  K. V. Lawler,  D. Lefrancois,  
 S. Lehtola,  Rain Li,  Yi-Pei Li,  Jiashu Liang,  M. Liebenthal,  
 Hung-Hsuan Lin,  You-Sheng Lin,  Fenglai Liu,  Kuan-Yu Liu,  
 M. Loipersberger,  A. Luenser,  A. Manjanath,  P. Manohar,  E. Mansoor,  
 S. F. Manzer,  Shan-Ping Mao,  A. V. Marenich,  T. Markovich,  S. Mason,  
 S. A. Maurer,  P. F. McLaughlin,  M. F. S. J. Menger,  J.-M. Mewes,  
 S. A. Mewes,  P. Morgante,  J. W. Mullinax,  K. J. Oosterbaan,  G. Paran,  
 Alexander C. Paul,  Suranjan K. Paul,  F. Pavosevic,  Zheng Pei,  S. Prager,  
 E. I. Proynov,  E. Ramos,  B. Rana,  A. E. Rask,  A. Rettig,  R. M. Richard,  
 F. Rob,  E. Rossomme,  T. Scheele,  M. Scheurer,  M. Schneider,  
 N. Sergueev,  S. M. Sharada,  W. Skomorowski,  D. W. Small,  C. J. Stein,  
 Yu-Chuan Su,  E. J. Sundstrom,  Zhen Tao,  J. Thirman,  T. Tsuchimochi,  
 N. M. Tubman,  S. P. Veccham,  O. Vydrov,  J. Wenzel,  J. Witte,  A. Yamada,  
 Kun Yao,  S. Yeganeh,  S. R. Yost,  A. Zech,  Igor Ying Zhang,  Xing Zhang,  
 Yu Zhang,  D. Zuev,  A. Aspuru-Guzik,  A. T. Bell,  N. A. Besley,  
 K. B. Bravaya,  B. R. Brooks,  D. Casanova,  Jeng-Da Chai,  S. Coriani,  
 C. J. Cramer,  A. E. DePrince, III,  R. A. DiStasio Jr.,  A. Dreuw,  
 B. D. Dunietz,  T. R. Furlani,  W. A. Goddard III,  S. Grimme,  
 S. Hammes-Schiffer,  T. Head-Gordon,  W. J. Hehre,  Chao-Ping Hsu,  
 T.-C. Jagau,  Yousung Jung,  A. Klamt,  Jing Kong,  D. S. Lambrecht,  
 WanZhen Liang,  N. J. Mayhall,  C. W. McCurdy,  J. B. Neaton,  T. Neudecker,  
 C. Ochsenfeld,  J. A. Parkhill,  R. Peverati,  V. A. Rassolov,  Yihan Shao,  
 L. V. Slipchenko,  R. P. Steele,  J. E. Subotnik,  A. J. W. Thom,  
 A. Tkatchenko,  D. G. Truhlar,  T. Van Voorhis,  T. A. Wesolowski,  
 K. B. Whaley,  H. L. Woodcock III,  P. M. Zimmerman,  S. Faraji,  
 P. M. W. Gill,  M. Head-Gordon,  J. M. Herbert,  A. I. Krylov

 Additional authors since Version 5.4.0: 
 Chandrima Chakravarty,  L. Cunha,  R. Kang,  Yongbin Kim,  S. Kotaru,  
 Shaozhi Li,  Xiangyuan Li,  F. Matz,  A. Molle,  V. Parravicini,  
 Haisheng Ren,  Hengyuan Shen,  Yingli Su,  Hung-Yi Tsai,  C. Utku,  
 Fang Wang,  Jeff Yang,  F. Zeller

 Contributors to earlier versions of Q-Chem not listed above: 
 R. D. Adamson,  B. Austin,  R. Baer,  J. Baker,  G. J. O. Beran,  
 K. Brandhorst,  S. T. Brown,  E. F. C. Byrd,  Arup K. Chakraborty,  
 G. K. L. Chan,  Chun-Min Chang,  Yunqing Chen,  C.-L. Cheng,  
 Siu Hung Chien,  D. M. Chipman,  D. L. Crittenden,  H. Dachsel,  
 R. J. Doerksen,  A. D. Dutoi,  R. G. Edgar,  J. Fosso-Tande,  
 L. Fusti-Molnar,  D. Ghosh,  A. Ghysels,  A. Golubeva-Zadorozhnaya,  
 J. Gonthier,  M. S. Gordon,  S. R. Gwaltney,  G. Hawkins,  J. E. Herr,  
 A. Heyden,  S. Hirata,  E. G. Hohenstein,  G. Kedziora,  F. J. Keil,  
 C. Kelley,  Jihan Kim,  R. A. King,  R. Z. Khaliullin,  P. P. Korambath,  
 W. Kurlancheek,  A. Laurent,  A. M. Lee,  M. S. Lee,  S. V. Levchenko,  
 Ching Yeh Lin,  D. Liotard,  E. Livshits,  R. C. Lochan,  I. Lotan,  
 L. A. Martinez-Martinez,  P. E. Maslen,  N. Nair,  D. P. O'Neill,  
 D. Neuhauser,  E. Neuscamman,  C. M. Oana,  R. Olivares-Amaya,  R. Olson,  
 T. M. Perrine,  B. Peters,  P. A. Pieniazek,  A. Prociuk,  Y. M. Rhee,  
 J. Ritchie,  M. A. Rohrdanz,  E. Rosta,  N. J. Russ,  H. F. Schaefer III,  
 M. W. Schmidt,  N. E. Schultz,  S. Sharma,  N. Shenvi,  C. D. Sherrill,  
 A. C. Simmonett,  A. Sodt,  T. Stein,  D. Stuck,  K. S. Thanthiriwatte,  
 V. Vanovschi,  L. Vogt,  Tao Wang,  A. Warshel,  M. A. Watson,  
 C. F. Williams,  Q. Wu,  X. Xu,  Jun Yang,  W. Zhang,  Yan Zhao

   Please cite Q-Chem as follows:
  "Software for the frontiers of quantum chemistry:
   An overview of developments in the Q-Chem 5 package"
   J. Chem. Phys. 155, 084801 (2021)
   https://doi.org/10.1063/5.0055522 (open access)

 Q-Chem 5.4.2 for Intel X86 EM64T Linux

 Parts of Q-Chem use Armadillo 9.900.5 (Nocturnal Misbehaviour).
 http://arma.sourceforge.net/

 Q-Chem begins on Fri Aug 12 13:11:43 2022  

 Host: 
0

     Scratch files written to /home/a/aspuru/seifridm/acdc_laser/descriptor_computation/qchem134533//
 Dec1321 |scratch|qcdevops|jenkins|workspace|build_RNUM 6959   
 Processing $rem in /gpfs/fs1/scinet/niagara/software/commercial/qc54/config/preferences:
 Processing $rem in /home/a/aspuru/seifridm/.qchemrc:

 Checking the input file for inconsistencies... 	...done.

--------------------------------------------------------------
User input:
--------------------------------------------------------------
$molecule
0 1
C           -2.02409082350000        3.94176623250000        0.12730085500000
C           -0.80583680220000        3.41541633600000        0.14949326360000
C           -0.46701545880000        1.99868874760000        0.05623922760000
C           -1.43206765370000        0.99265348370000        0.05128816510000
C           -1.07821704040000       -0.35221920880000       -0.04202414360000
C           -2.05260982770000       -1.43434624520000       -0.05081512060000
C           -3.37365529130000       -1.35812366170000        0.00833624730000
F           -4.12886416990000       -0.26953915950000        0.09090197710000
F           -4.16449267800000       -2.42849427670000       -0.00887998720000
C            0.27165528810000       -0.69420684360000       -0.13060638100000
C            1.24415903850000        0.29662182670000       -0.12354141980000
C            2.69230077310000       -0.02554208040000       -0.21151585890000
O            3.56838299740000        0.80419995200000       -0.18857097010000
O            2.91492592030000       -1.34039283240000       -0.33137992620000
C            4.27747491440000       -1.75907931080000       -0.40772966290000
C            4.90203057260000       -1.87701263530000        0.97521266190000
C            0.87512884470000        1.63319026400000       -0.02831482380000
H           -2.17182673520000        5.00553814030000        0.19867307900000
H           -2.91809567350000        3.34940285370000        0.03404432310000
H            0.05046132650000        4.07246167260000        0.23455462680000
H           -2.47010196770000        1.26658201450000        0.12766062830000
H           -1.65471287660000       -2.43674843530000       -0.11599748970000
H            0.56782200210000       -1.72871268580000       -0.20276785380000
H            4.83608537020000       -1.03854858000000       -1.01423074470000
H            4.24823617000000       -2.72752415350000       -0.91162042240000
H            4.93246394360000       -0.90054871830000        1.45223221390000
H            5.91574285540000       -2.25660662270000        0.88556603990000
H            4.32083640710000       -2.55572246110000        1.59504919800000
H            1.65339557020000        2.38206113840000       -0.02437490120000
$end

$rem
BASIS = 6-31G*
GUI = 2
METHOD = B3LYP
PRINT_ORBITALS false
MOLDEN_FORMAT false
$end
--------------------------------------------------------------
 ----------------------------------------------------------------
             Standard Nuclear Orientation (Angstroms)
    I     Atom           X                Y                Z
 ----------------------------------------------------------------
    1      C       2.6528861591    -3.5867784589     0.1050996131
    2      C       1.3729823373    -3.2358439984     0.1243554793
    3      C       0.8400240502    -1.8796946321     0.0381717334
    4      C       1.6551361761    -0.7487609854     0.0443776282
    5      C       1.1173309855     0.5341410008    -0.0423868414
    6      C       1.9310817169     1.7417497648    -0.0395009524
    7      C       3.2495678082     1.8503171205     0.0259011870
    8      F       4.1490482432     0.8772990085     0.1055533628
    9      F       3.8832404768     3.0207142821     0.0193546099
   10      C      -0.2666911070     0.6849061024    -0.1357163118
   11      C      -1.0913141650    -0.4320251569    -0.1397519404
   12      C      -2.5698759208    -0.3146138793    -0.2330969695
   13      O      -3.3215856149    -1.2586864938    -0.2197625667
   14      O      -2.9734392497     0.9570649600    -0.3459305639
   15      C      -4.3807759213     1.1819219992    -0.4266164698
   16      C      -5.0214488718     1.2020138978     0.9538334566
   17      C      -0.5396459797    -1.7045981469    -0.0509444261
   18      H       2.9474334450    -4.6199674829     0.1706198601
   19      H       3.4557867329    -2.8747692450     0.0200738942
   20      H       0.6164858557    -4.0065791894     0.2009768462
   21      H       2.7209251810    -0.8755909959     0.1243324641
   22      H       1.3973716167     2.6792012168    -0.1004860302
   23      H      -0.7041229806     1.6683976192    -0.2029631014
   24      H      -4.8307515473     0.3946300142    -1.0404136707
   25      H      -4.4849660562     2.1483949547    -0.9243319076
   26      H      -4.9172095832     0.2276180441     1.4246227037
   27      H      -6.0778554258     1.4369587518     0.8613844843
   28      H      -4.5433263217     1.9509573651     1.5808211175
   29      H      -1.2057140863    -2.5548061646    -0.0556144867
 ----------------------------------------------------------------
 Molecular Point Group                 C1    NOp =  1
 Largest Abelian Subgroup              C1    NOp =  1
 Nuclear Repulsion Energy =        1133.42210792 hartrees
 There are       62 alpha and       62 beta electrons
 Requested basis set is 6-31G(d)
 There are 92 shells and 279 basis functions

 Total QAlloc Memory Limit   8000 MB
 Mega-Array Size       188 MB
 MEM_STATIC part       192 MB
 A cutoff of  1.0D-08 yielded   2291 shell pairs
 There are     22831 function pairs
 Smallest overlap matrix eigenvalue = 3.54E-04

 Scale SEOQF with 1.000000e-02/1.000000e-01/1.000000e-01

 Standard Electronic Orientation quadrupole field applied
 Nucleus-field energy     =     0.0000000326 hartrees
 Guess from superposition of atomic densities
 Warning:  Energy on first SCF cycle will be non-variational
 SAD guess density has 124.000000 electrons

 -----------------------------------------------------------------------
  General SCF calculation program by
  Eric Jon Sundstrom, Paul Horn, Yuezhi Mao, Dmitri Zuev, Alec White,
  David Stuck, Shaama M.S., Shane Yost, Joonho Lee, David Small,
  Daniel Levine, Susi Lehtola, Hugh Burton, Evgeny Epifanovsky,
  Bang C. Huynh
 -----------------------------------------------------------------------
 Exchange:     0.2000 Hartree-Fock + 0.0800 Slater + 0.7200 B88
 Correlation:  0.1900 VWN1RPA + 0.8100 LYP
 Using SG-1 standard quadrature grid
 A restricted SCF calculation will be
 performed using DIIS
 SCF converges when DIIS error is below 1.0e-05
 ---------------------------------------
  Cycle       Energy         DIIS error
 ---------------------------------------
    1    -856.4350951466      4.80e-02  
    2    -852.4016011978      5.83e-03  
    3    -852.0405020575      8.89e-03  
    4    -852.6823009622      1.93e-03  
    5    -852.7102727190      6.33e-04  
    6    -852.7128027166      2.57e-04  
    7    -852.7133462011      7.46e-05  
    8    -852.7133958370      2.65e-05  
    9    -852.7134034654      6.49e-06  Convergence criterion met
 ---------------------------------------
 SCF time:   CPU 79.88s  wall 81.00s 
 SCF   energy in the final basis set =     -852.7134034654
 Total energy in the final basis set =     -852.7134034654
 
 --------------------------------------------------------------
 
                    Orbital Energies (a.u.)
 --------------------------------------------------------------
 
 Alpha MOs
 -- Occupied --
-24.7503 -24.7392 -19.1924 -19.1333 -10.3626 -10.3147 -10.2438 -10.2148
-10.2083 -10.2046 -10.2041 -10.1999 -10.1974 -10.1954 -10.1946 -10.1848
-10.1809  -1.2913  -1.2301  -1.1094  -1.0181  -0.8811  -0.8211  -0.8042
 -0.7737  -0.7499  -0.7359  -0.6754  -0.6512  -0.6412  -0.6113  -0.5901
 -0.5724  -0.5520  -0.5430  -0.5246  -0.5102  -0.4961  -0.4820  -0.4735
 -0.4675  -0.4577  -0.4463  -0.4432  -0.4414  -0.4345  -0.4198  -0.4118
 -0.4090  -0.3958  -0.3832  -0.3803  -0.3739  -0.3589  -0.3507  -0.3410
 -0.3246  -0.3004  -0.2906  -0.2750  -0.2394  -0.2260
 -- Virtual --
 -0.0526  -0.0363   0.0032   0.0769   0.0846   0.0906   0.1097   0.1129
  0.1159   0.1318   0.1456   0.1490   0.1559   0.1590   0.1708   0.1809
  0.1855   0.1894   0.1918   0.2064   0.2272   0.2343   0.2673   0.2794
  0.2893   0.3067   0.3082   0.3386   0.3512   0.3889   0.4166   0.4347
  0.4503   0.4844   0.4878   0.4950   0.5115   0.5177   0.5243   0.5313
  0.5386   0.5422   0.5442   0.5559   0.5594   0.5692   0.5771   0.5802
  0.5899   0.5911   0.6113   0.6161   0.6224   0.6316   0.6371   0.6581
  0.6772   0.6843   0.6871   0.7065   0.7393   0.7620   0.7711   0.7773
  0.7910   0.8020   0.8165   0.8208   0.8233   0.8486   0.8588   0.8783
  0.8810   0.8923   0.8932   0.8982   0.9099   0.9305   0.9533   0.9567
  0.9672   0.9863   1.0026   1.0101   1.0141   1.0462   1.0487   1.0827
  1.0952   1.1079   1.1248   1.1528   1.1553   1.1680   1.1735   1.1985
  1.2113   1.2253   1.2458   1.2563   1.2745   1.2965   1.3124   1.3217
  1.3355   1.3581   1.3748   1.3898   1.3984   1.4074   1.4287   1.4447
  1.4580   1.4702   1.4742   1.4923   1.5002   1.5122   1.5393   1.5749
  1.6039   1.6564   1.6642   1.6722   1.6918   1.7153   1.7405   1.7502
  1.7753   1.7769   1.7866   1.8081   1.8171   1.8316   1.8330   1.8494
  1.8735   1.8843   1.8951   1.8973   1.9326   1.9344   1.9465   1.9632
  1.9700   1.9802   1.9891   2.0165   2.0228   2.0333   2.0434   2.0624
  2.0865   2.1151   2.1225   2.1275   2.1543   2.1609   2.1816   2.2191
  2.2244   2.2313   2.2500   2.2560   2.3034   2.3043   2.3199   2.3495
  2.3531   2.3912   2.4101   2.4614   2.4775   2.5160   2.5185   2.5211
  2.5357   2.5824   2.5923   2.6270   2.6328   2.6715   2.6812   2.6855
  2.7521   2.7562   2.8282   2.8377   2.8539   2.8826   2.9177   2.9650
  2.9954   3.0559   3.0959   3.1487   3.1625   3.2251   3.3363   3.4854
  3.9859   4.0730   4.0878   4.1089   4.1260   4.1544   4.1882   4.2328
  4.2602   4.3185   4.4352   4.4632   4.4949   4.5874   4.7430   4.8286
  5.3100
 --------------------------------------------------------------
 
          Ground-State Mulliken Net Atomic Charges

     Atom                 Charge (a.u.)
  ----------------------------------------
      1 C                    -0.353178
      2 C                    -0.110148
      3 C                     0.174984
      4 C                    -0.248333
      5 C                     0.197404
      6 C                    -0.296696
      7 C                     0.546509
      8 F                    -0.232572
      9 F                    -0.246255
     10 C                    -0.235572
     11 C                     0.050233
     12 C                     0.603763
     13 O                    -0.491311
     14 O                    -0.469560
     15 C                    -0.045969
     16 C                    -0.464555
     17 C                    -0.236082
     18 H                     0.148437
     19 H                     0.147912
     20 H                     0.134651
     21 H                     0.141627
     22 H                     0.162604
     23 H                     0.152829
     24 H                     0.169429
     25 H                     0.151219
     26 H                     0.179654
     27 H                     0.152234
     28 H                     0.156393
     29 H                     0.160347
  ----------------------------------------
  Sum of atomic charges =     0.000000

 -----------------------------------------------------------------
                    Cartesian Multipole Moments
 -----------------------------------------------------------------
    Charge (ESU x 10^10)
                -0.0000
    Dipole Moment (Debye)
         X      -0.1966      Y       1.3791      Z       0.0667
       Tot       1.3946
    Quadrupole Moments (Debye-Ang)
        XX     -92.8871     XY     -11.3050     YY     -91.6611
        XZ       0.0490     YZ      -0.9649     ZZ     -97.8939
    Octopole Moments (Debye-Ang^2)
       XXX     -13.1224    XXY      31.3680    XYY      12.6776
       YYY      13.9527    XXZ      -2.4574    XYZ       1.9832
       YYZ       1.1941    XZZ       4.8619    YZZ      16.3912
       ZZZ      -1.7584
    Hexadecapole Moments (Debye-Ang^3)
      XXXX   -4580.6130   XXXY    -130.7829   XXYY   -1146.3263
      XYYY      36.3834   YYYY   -1897.7029   XXXZ      22.9808
      XXYZ     -13.1295   XYYZ       6.3883   YYYZ     -12.5694
      XXZZ    -818.6232   XYZZ      51.9751   YYZZ    -383.6668
      XZZZ      13.3881   YZZZ       2.7019   ZZZZ    -168.9687
 -----------------------------------------------------------------
 Total job time:  84.72s(wall), 80.58s(cpu) 
 Fri Aug 12 13:13:07 2022

        *************************************************************
        *                                                           *
        *  Thank you very much for using Q-Chem.  Have a nice day.  *
        *                                                           *
        *************************************************************


