
Running Job 1 of 1 tidas/B036/conf-0/spe_input.inp
qchem tidas/B036/conf-0/spe_input.inp_239678.0 /home/a/aspuru/seifridm/acdc_laser/descriptor_computation/qchem239678/ 0
/gpfs/fs1/scinet/niagara/software/commercial/qc54/exe/qcprog.exe_s tidas/B036/conf-0/spe_input.inp_239678.0 /home/a/aspuru/seifridm/acdc_laser/descriptor_computation/qchem239678/
                  Welcome to Q-Chem
     A Quantum Leap Into The Future Of Chemistry


 Q-Chem 5.4, Q-Chem, Inc., Pleasanton, CA (2021)

 License issued to: SRG Alan Aspuru-Guzik, University of Toronto

 E. Epifanovsky,  A. T. B. Gilbert,  Xintian Feng,  Joonho Lee,  Yuezhi Mao,  
 N. Mardirossian,  P. Pokhilko,  A. White,  M. Wormit,  M. P. Coons,  
 A. L. Dempwolff,  Zhengting Gan,  D. Hait,  P. R. Horn,  L. D. Jacobson,  
 I. Kaliman,  J. Kussmann,  A. W. Lange,  Ka Un Lao,  D. S. Levine,  Jie Liu,  
 S. C. McKenzie,  A. F. Morrison,  K. Nanda,  F. Plasser,  D. R. Rehn,  
 M. L. Vidal,  Zhi-Qiang You,  Ying Zhu,  B. Alam,  B. Albrecht,  
 A. Aldossary,  E. Alguire,  J. H. Andersen,  D. Barton,  K. Begam,  A. Behn,  
 Y. A. Bernard,  E. J. Berquist,  H. Burton,  A. Carreras,  K. Carter-Fenk,  
 Romit Chakraborty,  A. D. Chien,  K. D. Closser,  V. Cofer-Shabica,  
 S. Dasgupta,  Jia Deng,  M. de Wergifosse,  M. Diedenhofen,  Hainam Do,  
 S. Ehlert,  Po-Tung Fang,  S. Fatehi,  Qingguo Feng,  T. Friedhoff,  
 J. Gayvert,  Qinghui Ge,  G. Gidofalvi,  M. Goldey,  J. Gomes,  
 C. Gonzalez-Espinoza,  S. Gulania,  A. Gunina,  M. W. D. Hanson-Heine,  
 P. H. P. Harbach,  A. W. Hauser,  M. F. Herbst,  M. Hernandez Vera,  
 M. Hodecker,  Z. C. Holden,  S. Houck,  Xunkun Huang,  Kerwin Hui,  
 B. C. Huynh,  M. Ivanov,  Hyunjun Ji,  Hanjie Jiang,  B. Kaduk,  S. Kaehler,  
 K. Khistyaev,  Jaehoon Kim,  P. Klunzinger,  Z. Koczor-Benda,  
 Joong Hoon Koh,  D. Kosenkov,  L. Koulias,  T. Kowalczyk,  C. M. Krauter,  
 K. Kue,  A. Kunitsa,  T. Kus,  A. Landau,  K. V. Lawler,  D. Lefrancois,  
 S. Lehtola,  Rain Li,  Yi-Pei Li,  Jiashu Liang,  M. Liebenthal,  
 Hung-Hsuan Lin,  You-Sheng Lin,  Fenglai Liu,  Kuan-Yu Liu,  
 M. Loipersberger,  A. Luenser,  A. Manjanath,  P. Manohar,  E. Mansoor,  
 S. F. Manzer,  Shan-Ping Mao,  A. V. Marenich,  T. Markovich,  S. Mason,  
 S. A. Maurer,  P. F. McLaughlin,  M. F. S. J. Menger,  J.-M. Mewes,  
 S. A. Mewes,  P. Morgante,  J. W. Mullinax,  K. J. Oosterbaan,  G. Paran,  
 Alexander C. Paul,  Suranjan K. Paul,  F. Pavosevic,  Zheng Pei,  S. Prager,  
 E. I. Proynov,  E. Ramos,  B. Rana,  A. E. Rask,  A. Rettig,  R. M. Richard,  
 F. Rob,  E. Rossomme,  T. Scheele,  M. Scheurer,  M. Schneider,  
 N. Sergueev,  S. M. Sharada,  W. Skomorowski,  D. W. Small,  C. J. Stein,  
 Yu-Chuan Su,  E. J. Sundstrom,  Zhen Tao,  J. Thirman,  T. Tsuchimochi,  
 N. M. Tubman,  S. P. Veccham,  O. Vydrov,  J. Wenzel,  J. Witte,  A. Yamada,  
 Kun Yao,  S. Yeganeh,  S. R. Yost,  A. Zech,  Igor Ying Zhang,  Xing Zhang,  
 Yu Zhang,  D. Zuev,  A. Aspuru-Guzik,  A. T. Bell,  N. A. Besley,  
 K. B. Bravaya,  B. R. Brooks,  D. Casanova,  Jeng-Da Chai,  S. Coriani,  
 C. J. Cramer,  A. E. DePrince, III,  R. A. DiStasio Jr.,  A. Dreuw,  
 B. D. Dunietz,  T. R. Furlani,  W. A. Goddard III,  S. Grimme,  
 S. Hammes-Schiffer,  T. Head-Gordon,  W. J. Hehre,  Chao-Ping Hsu,  
 T.-C. Jagau,  Yousung Jung,  A. Klamt,  Jing Kong,  D. S. Lambrecht,  
 WanZhen Liang,  N. J. Mayhall,  C. W. McCurdy,  J. B. Neaton,  T. Neudecker,  
 C. Ochsenfeld,  J. A. Parkhill,  R. Peverati,  V. A. Rassolov,  Yihan Shao,  
 L. V. Slipchenko,  R. P. Steele,  J. E. Subotnik,  A. J. W. Thom,  
 A. Tkatchenko,  D. G. Truhlar,  T. Van Voorhis,  T. A. Wesolowski,  
 K. B. Whaley,  H. L. Woodcock III,  P. M. Zimmerman,  S. Faraji,  
 P. M. W. Gill,  M. Head-Gordon,  J. M. Herbert,  A. I. Krylov

 Additional authors since Version 5.4.0: 
 Chandrima Chakravarty,  L. Cunha,  R. Kang,  Yongbin Kim,  S. Kotaru,  
 Shaozhi Li,  Xiangyuan Li,  F. Matz,  A. Molle,  V. Parravicini,  
 Haisheng Ren,  Hengyuan Shen,  Yingli Su,  Hung-Yi Tsai,  C. Utku,  
 Fang Wang,  Jeff Yang,  F. Zeller

 Contributors to earlier versions of Q-Chem not listed above: 
 R. D. Adamson,  B. Austin,  R. Baer,  J. Baker,  G. J. O. Beran,  
 K. Brandhorst,  S. T. Brown,  E. F. C. Byrd,  Arup K. Chakraborty,  
 G. K. L. Chan,  Chun-Min Chang,  Yunqing Chen,  C.-L. Cheng,  
 Siu Hung Chien,  D. M. Chipman,  D. L. Crittenden,  H. Dachsel,  
 R. J. Doerksen,  A. D. Dutoi,  R. G. Edgar,  J. Fosso-Tande,  
 L. Fusti-Molnar,  D. Ghosh,  A. Ghysels,  A. Golubeva-Zadorozhnaya,  
 J. Gonthier,  M. S. Gordon,  S. R. Gwaltney,  G. Hawkins,  J. E. Herr,  
 A. Heyden,  S. Hirata,  E. G. Hohenstein,  G. Kedziora,  F. J. Keil,  
 C. Kelley,  Jihan Kim,  R. A. King,  R. Z. Khaliullin,  P. P. Korambath,  
 W. Kurlancheek,  A. Laurent,  A. M. Lee,  M. S. Lee,  S. V. Levchenko,  
 Ching Yeh Lin,  D. Liotard,  E. Livshits,  R. C. Lochan,  I. Lotan,  
 L. A. Martinez-Martinez,  P. E. Maslen,  N. Nair,  D. P. O'Neill,  
 D. Neuhauser,  E. Neuscamman,  C. M. Oana,  R. Olivares-Amaya,  R. Olson,  
 T. M. Perrine,  B. Peters,  P. A. Pieniazek,  A. Prociuk,  Y. M. Rhee,  
 J. Ritchie,  M. A. Rohrdanz,  E. Rosta,  N. J. Russ,  H. F. Schaefer III,  
 M. W. Schmidt,  N. E. Schultz,  S. Sharma,  N. Shenvi,  C. D. Sherrill,  
 A. C. Simmonett,  A. Sodt,  T. Stein,  D. Stuck,  K. S. Thanthiriwatte,  
 V. Vanovschi,  L. Vogt,  Tao Wang,  A. Warshel,  M. A. Watson,  
 C. F. Williams,  Q. Wu,  X. Xu,  Jun Yang,  W. Zhang,  Yan Zhao

   Please cite Q-Chem as follows:
  "Software for the frontiers of quantum chemistry:
   An overview of developments in the Q-Chem 5 package"
   J. Chem. Phys. 155, 084801 (2021)
   https://doi.org/10.1063/5.0055522 (open access)

 Q-Chem 5.4.2 for Intel X86 EM64T Linux

 Parts of Q-Chem use Armadillo 9.900.5 (Nocturnal Misbehaviour).
 http://arma.sourceforge.net/

 Q-Chem begins on Fri Aug 12 12:43:23 2022  

 Host: 
0

     Scratch files written to /home/a/aspuru/seifridm/acdc_laser/descriptor_computation/qchem239678//
 Dec1321 |scratch|qcdevops|jenkins|workspace|build_RNUM 6959   
 Processing $rem in /gpfs/fs1/scinet/niagara/software/commercial/qc54/config/preferences:
 Processing $rem in /home/a/aspuru/seifridm/.qchemrc:

 Checking the input file for inconsistencies... 	...done.

--------------------------------------------------------------
User input:
--------------------------------------------------------------
$molecule
0 1
C           -2.44892210600000        3.24216617930000        0.01514244290000
C           -2.84759898390000        1.97587199310000       -0.00276306120000
C           -1.99757529570000        0.79207860010000       -0.00284793660000
C           -2.58938215020000       -0.46992225450000       -0.00713176090000
C           -1.82747206400000       -1.62262561110000       -0.00553148540000
C           -0.44052320180000       -1.55132931930000       -0.00032280550000
O            0.38115433860000       -2.63621872570000        0.00186817460000
C           -0.19016880360000       -3.92198737110000        0.00335664650000
C            0.18508292680000       -0.28342641340000        0.00224805840000
C            1.63846309080000       -0.24695319420000        0.00673441610000
C            2.44002593580000        0.80649943210000       -0.00069329380000
F            2.11088664290000        2.09557591630000       -0.01402526060000
F            3.77016681770000        0.70812833870000        0.00439881680000
C           -0.60579530510000        0.85789031120000        0.00120274880000
H           -3.16007418120000        4.05023180840000        0.01410186240000
H           -1.41181271390000        3.52887974150000        0.03196801410000
H           -3.90962988980000        1.76169447800000       -0.01777306090000
H           -3.66668282660000       -0.55389603090000       -0.01123208590000
H           -2.32795203630000       -2.57801598900000       -0.00853501200000
H            0.64986865470000       -4.61496239640000        0.00853624490000
H           -0.79473878250000       -4.09491151720000       -0.89245057460000
H           -0.80161144840000       -4.08972155020000        0.89547378330000
H            2.13135502540000       -1.20719618200000        0.01636348070000
H           -0.12962941050000        1.82261621070000        0.00339891270000
$end

$rem
BASIS = 6-31G*
GUI = 2
METHOD = B3LYP
PRINT_ORBITALS false
MOLDEN_FORMAT false
$end
--------------------------------------------------------------
 ----------------------------------------------------------------
             Standard Nuclear Orientation (Angstroms)
    I     Atom           X                Y                Z
 ----------------------------------------------------------------
    1      C       3.4253650997    -2.1459932036     0.0146177157
    2      C       3.3139106197    -0.8231058747    -0.0030412742
    3      C       2.0783727463    -0.0502195711    -0.0030238222
    4      C       2.1472425068     1.3419516377    -0.0070415892
    5      C       1.0050261039     2.1194947841    -0.0053347799
    6      C      -0.2512231140     1.5274223057    -0.0002829616
    7      O      -1.4230167042     2.2195482964     0.0019973252
    8      C      -1.3821156898     3.6259399135     0.0037535507
    9      C      -0.3491272630     0.1169695761     0.0020173491
   10      C      -1.6800521719    -0.4680812577     0.0063455143
   11      C      -2.0221085683    -1.7468537196    -0.0013365137
   12      F      -1.2285891965    -2.8147362950    -0.0148424120
   13      F      -3.2901544096    -2.1603904465     0.0036321203
   14      C       0.8155730662    -0.6390497119     0.0008703821
   15      H       4.3898874142    -2.6239094305     0.0135210045
   16      H       2.5745222781    -2.8046829969     0.0312882544
   17      H       4.2153270466    -0.2220780572    -0.0179053579
   18      H       3.1121765736     1.8282967933    -0.0110154500
   19      H       1.1056992241     3.1933276853    -0.0081313926
   20      H      -2.4222344384     3.9484768205     0.0089571660
   21      H      -0.8882914698     4.0154381458    -0.8919623439
   22      H      -0.8800274554     4.0129044893     0.8959618618
   23      H      -2.5003511988     0.2334289383     0.0160781847
   24      H       0.7409381005    -1.7122973554     0.0028606706
 ----------------------------------------------------------------
 Molecular Point Group                 C1    NOp =  1
 Largest Abelian Subgroup              C1    NOp =  1
 Nuclear Repulsion Energy =         848.77492351 hartrees
 There are       51 alpha and       51 beta electrons
 Requested basis set is 6-31G(d)
 There are 76 shells and 230 basis functions

 Total QAlloc Memory Limit   8000 MB
 Mega-Array Size       188 MB
 MEM_STATIC part       192 MB
 A cutoff of  1.0D-08 yielded   1849 shell pairs
 There are     18314 function pairs
 Smallest overlap matrix eigenvalue = 3.34E-04

 Scale SEOQF with 1.000000e-01/1.000000e-01/1.000000e+00

 Standard Electronic Orientation quadrupole field applied
 Nucleus-field energy     =     0.0000000441 hartrees
 Guess from superposition of atomic densities
 Warning:  Energy on first SCF cycle will be non-variational
 SAD guess density has 102.000000 electrons

 -----------------------------------------------------------------------
  General SCF calculation program by
  Eric Jon Sundstrom, Paul Horn, Yuezhi Mao, Dmitri Zuev, Alec White,
  David Stuck, Shaama M.S., Shane Yost, Joonho Lee, David Small,
  Daniel Levine, Susi Lehtola, Hugh Burton, Evgeny Epifanovsky,
  Bang C. Huynh
 -----------------------------------------------------------------------
 Exchange:     0.2000 Hartree-Fock + 0.0800 Slater + 0.7200 B88
 Correlation:  0.1900 VWN1RPA + 0.8100 LYP
 Using SG-1 standard quadrature grid
 A restricted SCF calculation will be
 performed using DIIS
 SCF converges when DIIS error is below 1.0e-05
 ---------------------------------------
  Cycle       Energy         DIIS error
 ---------------------------------------
    1    -703.1454179144      5.26e-02  
    2    -699.8088631381      5.80e-03  
    3    -699.6405441933      7.65e-03  
    4    -700.0249911381      1.38e-03  
    5    -700.0371912385      4.36e-04  
    6    -700.0381486111      2.04e-04  
    7    -700.0384232260      4.22e-05  
    8    -700.0384346778      1.45e-05  
    9    -700.0384365075      3.75e-06  Convergence criterion met
 ---------------------------------------
 SCF time:   CPU 54.99s  wall 62.00s 
 SCF   energy in the final basis set =     -700.0384365075
 Total energy in the final basis set =     -700.0384365075
 
 --------------------------------------------------------------
 
                    Orbital Energies (a.u.)
 --------------------------------------------------------------
 
 Alpha MOs
 -- Occupied --
-24.7385 -24.7274 -19.1877 -10.3496 -10.2516 -10.2471 -10.2027 -10.1942
-10.1889 -10.1883 -10.1880 -10.1857 -10.1849 -10.1735  -1.2784  -1.2175
 -1.0779  -0.8670  -0.8103  -0.7841  -0.7466  -0.7350  -0.6978  -0.6451
 -0.6175  -0.6044  -0.5734  -0.5522  -0.5408  -0.5199  -0.5123  -0.4901
 -0.4792  -0.4711  -0.4450  -0.4393  -0.4347  -0.4324  -0.4304  -0.4103
 -0.3969  -0.3944  -0.3920  -0.3556  -0.3475  -0.3399  -0.3287  -0.3021
 -0.2754  -0.2268  -0.2016
 -- Virtual --
 -0.0242  -0.0216   0.0552   0.0903   0.0917   0.1036   0.1158   0.1206
  0.1310   0.1487   0.1540   0.1611   0.1623   0.1886   0.1911   0.1978
  0.2164   0.2468   0.2539   0.2906   0.3088   0.3356   0.3452   0.3630
  0.4171   0.4284   0.4422   0.4711   0.4963   0.4985   0.5138   0.5251
  0.5370   0.5379   0.5464   0.5660   0.5688   0.5758   0.5879   0.5936
  0.5961   0.6068   0.6193   0.6258   0.6360   0.6406   0.6448   0.7023
  0.7031   0.7133   0.7308   0.7534   0.7845   0.8112   0.8185   0.8316
  0.8392   0.8556   0.8607   0.8666   0.8874   0.8922   0.9076   0.9289
  0.9608   0.9721   0.9864   0.9974   1.0023   1.0421   1.0553   1.0579
  1.0771   1.1257   1.1275   1.1491   1.1678   1.1847   1.2135   1.2237
  1.2311   1.2489   1.2544   1.2796   1.3198   1.3413   1.3725   1.3828
  1.3981   1.4112   1.4128   1.4306   1.4465   1.4705   1.4832   1.4888
  1.5051   1.5074   1.5277   1.5288   1.6155   1.6646   1.6821   1.7008
  1.7448   1.7813   1.7864   1.7882   1.8133   1.8371   1.8417   1.8495
  1.8566   1.8683   1.9230   1.9431   1.9513   1.9770   1.9869   1.9985
  2.0116   2.0139   2.0362   2.0423   2.0781   2.0800   2.1186   2.1199
  2.1387   2.1498   2.1708   2.2124   2.2367   2.2455   2.2664   2.2756
  2.2773   2.3218   2.3510   2.3793   2.3930   2.4541   2.4972   2.5094
  2.5260   2.5646   2.5869   2.6222   2.6432   2.6479   2.6655   2.7127
  2.7260   2.7710   2.8256   2.8649   2.9079   2.9547   3.0114   3.0331
  3.1050   3.1275   3.2066   3.3630   3.4839   4.0512   4.0964   4.0979
  4.1280   4.1611   4.1968   4.2652   4.2879   4.3678   4.4957   4.5463
  4.7441   4.8841   5.3493
 --------------------------------------------------------------
 
          Ground-State Mulliken Net Atomic Charges

     Atom                 Charge (a.u.)
  ----------------------------------------
      1 C                    -0.356943
      2 C                    -0.117687
      3 C                     0.190703
      4 C                    -0.209676
      5 C                    -0.194329
      6 C                     0.323542
      7 O                    -0.510469
      8 C                    -0.215991
      9 C                     0.130731
     10 C                    -0.287694
     11 C                     0.546207
     12 F                    -0.237612
     13 F                    -0.251374
     14 C                    -0.280087
     15 H                     0.141103
     16 H                     0.144612
     17 H                     0.123193
     18 H                     0.128002
     19 H                     0.131453
     20 H                     0.171923
     21 H                     0.155317
     22 H                     0.155328
     23 H                     0.180735
     24 H                     0.139012
  ----------------------------------------
  Sum of atomic charges =     0.000000

 -----------------------------------------------------------------
                    Cartesian Multipole Moments
 -----------------------------------------------------------------
    Charge (ESU x 10^10)
                 0.0000
    Dipole Moment (Debye)
         X       0.3589      Y       2.8530      Z       0.0069
       Tot       2.8755
    Quadrupole Moments (Debye-Ang)
        XX     -77.2845     XY      -3.5261     YY     -67.9465
        XZ      -0.0495     YZ      -0.0420     ZZ     -82.2404
    Octopole Moments (Debye-Ang^2)
       XXX     -20.3794    XXY       5.4135    XYY     -14.9078
       YYY      22.4131    XXZ      -0.1725    XYZ      -0.1526
       YYZ       0.1536    XZZ     -22.2740    YZZ      -8.9546
       ZZZ      -0.1150
    Hexadecapole Moments (Debye-Ang^3)
      XXXX   -2009.8562   XXXY      24.3418   XXYY    -627.7820
      XYYY     -12.4903   YYYY   -1686.0835   XXXZ      -0.9245
      XXYZ      -0.0401   XYYZ       0.1337   YYYZ      -0.1513
      XXZZ    -386.4270   XYZZ      29.9654   YYZZ    -328.9167
      XZZZ      -0.0114   YZZZ       0.4290   ZZZZ     -85.0720
 -----------------------------------------------------------------
 Total job time:  64.30s(wall), 55.46s(cpu) 
 Fri Aug 12 12:44:27 2022

        *************************************************************
        *                                                           *
        *  Thank you very much for using Q-Chem.  Have a nice day.  *
        *                                                           *
        *************************************************************


