
Running Job 1 of 1 fragments/C046/conf-5/spe_input.inp
qchem fragments/C046/conf-5/spe_input.inp_40520.0 /gpfs/fs0/scratch/a/aspuru/rhickman/descriptor_computation/qchem40520/ 0
/scinet/niagara/software/commercial/qc52/exe/qcprog.exe_s fragments/C046/conf-5/spe_input.inp_40520.0 /gpfs/fs0/scratch/a/aspuru/rhickman/descriptor_computation/qchem40520/
                  Welcome to Q-Chem
     A Quantum Leap Into The Future Of Chemistry


 Q-Chem 5.2, Q-Chem, Inc., Pleasanton, CA (2019)

 License issued to: SRG Alan Aspuru-Guzik, University of Toronto

 Yihan Shao,  Zhengting Gan,  E. Epifanovsky,  A. T. B. Gilbert,  M. Wormit,  
 J. Kussmann,  A. W. Lange,  A. Behn,  Jia Deng,  Xintian Feng,  D. Ghosh,  
 M. Goldey,  P. R. Horn,  L. D. Jacobson,  I. Kaliman,  T. Kus,  A. Landau,  
 Jie Liu,  E. I. Proynov,  R. M. Richard,  R. P. Steele,  E. J. Sundstrom,  
 H. L. Woodcock III,  P. M. Zimmerman,  D. Zuev,  B. Albrecht,  E. Alguire,  
 S. A. Baeppler,  D. Barton,  Z. Benda,  Y. A. Bernard,  E. J. Berquist,  
 K. B. Bravaya,  H. Burton,  D. Casanova,  Chun-Min Chang,  Yunqing Chen,  
 A. Chien,  K. D. Closser,  M. P. Coons,  S. Coriani,  S. Dasgupta,  
 A. L. Dempwolff,  M. Diedenhofen,  Hainam Do,  R. G. Edgar,  Po-Tung Fang,  
 S. Faraji,  S. Fatehi,  Qingguo Feng,  K. D. Fenk,  J. Fosso-Tande,  
 J. Gayvert,  Qinghui Ge,  A. Ghysels,  G. Gidofalvi,  J. Gomes,  
 J. Gonthier,  A. Gunina,  D. Hait,  M. W. D. Hanson-Heine,  
 P. H. P. Harbach,  A. W. Hauser,  M. F. Herbst,  J. E. Herr,  
 E. G. Hohenstein,  Z. C. Holden,  Kerwin Hui,  B. C. Huynh,  T.-C. Jagau,  
 Hyunjun Ji,  B. Kaduk,  K. Khistyaev,  Jaehoon Kim,  P. Klunzinger,  K. Koh,  
 D. Kosenkov,  L. Koulias,  T. Kowalczyk,  C. M. Krauter,  A. Kunitsa,  
 Ka Un Lao,  A. Laurent,  K. V. Lawler,  Joonho Lee,  D. Lefrancois,  
 S. Lehtola,  D. S. Levine,  Yi-Pei Li,  You-Sheng Lin,  Fenglai Liu,  
 E. Livshits,  A. Luenser,  P. Manohar,  E. Mansoor,  S. F. Manzer,  
 Shan-Ping Mao,  Yuezhi Mao,  N. Mardirossian,  A. V. Marenich,  
 T. Markovich,  L. A. Martinez-Martinez,  S. A. Maurer,  N. J. Mayhall,  
 S. C. McKenzie,  J.-M. Mewes,  P. Morgante,  A. F. Morrison,  
 J. W. Mullinax,  K. Nanda,  T. S. Nguyen-Beck,  R. Olivares-Amaya,  
 J. A. Parkhill,  Zheng Pei,  T. M. Perrine,  F. Plasser,  P. Pokhilko,  
 S. Prager,  A. Prociuk,  E. Ramos,  D. R. Rehn,  F. Rob,  M. Scheurer,  
 M. Schneider,  N. Sergueev,  S. M. Sharada,  S. Sharma,  D. W. Small,  
 T. Stauch,  T. Stein,  Yu-Chuan Su,  A. J. W. Thom,  A. Tkatchenko,  
 T. Tsuchimochi,  N. M. Tubman,  L. Vogt,  M. L. Vidal,  O. Vydrov,  
 M. A. Watson,  J. Wenzel,  M. de Wergifosse,  T. A. Wesolowski,  A. White,  
 J. Witte,  A. Yamada,  Jun Yang,  K. Yao,  S. Yeganeh,  S. R. Yost,  
 Zhi-Qiang You,  A. Zech,  Igor Ying Zhang,  Xing Zhang,  Yan Zhao,  
 Ying Zhu,  B. R. Brooks,  G. K. L. Chan,  C. J. Cramer,  M. S. Gordon,  
 W. J. Hehre,  A. Klamt,  M. W. Schmidt,  C. D. Sherrill,  D. G. Truhlar,  
 A. Aspuru-Guzik,  R. Baer,  A. T. Bell,  N. A. Besley,  Jeng-Da Chai,  
 A. E. DePrince, III,  R. A. DiStasio Jr.,  A. Dreuw,  B. D. Dunietz,  
 T. R. Furlani,  Chao-Ping Hsu,  Yousung Jung,  Jing Kong,  D. S. Lambrecht,  
 WanZhen Liang,  C. Ochsenfeld,  V. A. Rassolov,  L. V. Slipchenko,  
 J. E. Subotnik,  T. Van Voorhis,  J. M. Herbert,  A. I. Krylov,  
 P. M. W. Gill,  M. Head-Gordon

 Contributors to earlier versions of Q-Chem not listed above: 
 R. D. Adamson,  B. Austin,  J. Baker,  G. J. O. Beran,  K. Brandhorst,  
 S. T. Brown,  E. F. C. Byrd,  A. K. Chakraborty,  C.-L. Cheng,  
 Siu Hung Chien,  D. M. Chipman,  D. L. Crittenden,  H. Dachsel,  
 R. J. Doerksen,  A. D. Dutoi,  L. Fusti-Molnar,  W. A. Goddard III,  
 A. Golubeva-Zadorozhnaya,  S. R. Gwaltney,  G. Hawkins,  A. Heyden,  
 S. Hirata,  G. Kedziora,  F. J. Keil,  C. Kelley,  Jihan Kim,  R. A. King,  
 R. Z. Khaliullin,  P. P. Korambath,  W. Kurlancheek,  A. M. Lee,  M. S. Lee,  
 S. V. Levchenko,  Ching Yeh Lin,  D. Liotard,  R. C. Lochan,  I. Lotan,  
 P. E. Maslen,  N. Nair,  D. P. O'Neill,  D. Neuhauser,  E. Neuscamman,  
 C. M. Oana,  R. Olson,  B. Peters,  R. Peverati,  P. A. Pieniazek,  
 Y. M. Rhee,  J. Ritchie,  M. A. Rohrdanz,  E. Rosta,  N. J. Russ,  
 H. F. Schaefer III,  N. E. Schultz,  N. Shenvi,  A. C. Simmonett,  A. Sodt,  
 D. Stuck,  K. S. Thanthiriwatte,  V. Vanovschi,  Tao Wang,  A. Warshel,  
 C. F. Williams,  Q. Wu,  X. Xu,  W. Zhang

 Please cite Q-Chem as follows:
 Y. Shao et al., Mol. Phys. 113, 184-215 (2015)
 DOI: 10.1080/00268976.2014.952696

 Q-Chem 5.2.1 for Intel X86 EM64T Linux

 Parts of Q-Chem use Armadillo 8.300.2 (Tropical Shenanigans).
 http://arma.sourceforge.net/

 Q-Chem begins on Mon Feb  7 13:18:06 2022  

Host: 
0

     Scratch files written to /gpfs/fs0/scratch/a/aspuru/rhickman/descriptor_computation/qchem40520//
 Jul1719 |scratch|qcdevops|jenkins|workspace|build_RNUM -1
Processing $rem in /scinet/niagara/software/commercial/qc52/config/preferences:
	 MEM_TOTAL  4000 
NAlpha2: 134
NElect   134
Mult     1

Checking the input file for inconsistencies... 	...done.

--------------------------------------------------------------
User input:
--------------------------------------------------------------
$molecule
0 1
C        -4.41820664450000    1.76116437370000   -0.92142665400000
C        -3.26889803720000    1.98538558530000   -0.29632724030000
C        -2.27482997250000    0.98455133150000    0.07201109870000
C        -2.34685704650000   -0.35333252910000   -0.30881055970000
C        -1.38687747350000   -1.29038834950000    0.05260450950000
C        -1.49268771870000   -2.69472357600000   -0.33849207640000
C        -2.10572715190000   -3.14727122600000   -1.42388367890000
C        -0.30036239690000   -0.87188436650000    0.83893159500000
O         0.67784642920000   -1.75777689950000    1.22896377840000
C         1.64605618360000   -2.03930092240000    0.21753638220000
C         2.39434981190000   -0.79368218210000   -0.17666511630000
C         3.49890586970000   -0.37442079200000    0.55326902000000
C         4.13546787070000    0.81315119260000    0.23914561000000
C         3.66799116570000    1.59702825550000   -0.80221747750000
C         2.56414169450000    1.18817093280000   -1.53077000940000
C         1.92929240580000   -0.00095626520000   -1.21868663950000
C        -0.20032851030000    0.45459072310000    1.23315980560000
C        -1.17507127250000    1.35197338220000    0.85169436590000
F        -1.04507716010000    2.63560238020000    1.25338960550000
H        -5.09237128840000    2.56817413510000   -1.15004553200000
H        -4.73960315710000    0.77915019220000   -1.22343665690000
H        -3.01505790580000    2.99691532110000   -0.00753964810000
H        -3.18826417030000   -0.68294492690000   -0.89630804900000
H        -1.00030956310000   -3.38646869590000    0.33343103980000
H        -2.57770448300000   -2.49024820400000   -2.13538049870000
H        -2.14649865320000   -4.19899844640000   -1.64931721980000
H         1.15454370870000   -2.48329175710000   -0.65946182350000
H         2.31246750650000   -2.77513904730000    0.67287419840000
H         3.85562560240000   -0.98151711050000    1.37267157290000
H         4.99543953940000    1.12999976590000    0.81072590510000
H         4.16206864380000    2.52625418310000   -1.04428031950000
H         2.19377012010000    1.79775452500000   -2.34162962870000
H         1.06500782620000   -0.31707391390000   -1.78657516630000
H         0.63565210950000    0.78106136390000    1.83106299890000
$end

$rem
BASIS = 6-31G*
GUI = 2
METHOD = B3LYP
PRINT_ORBITALS false
MOLDEN_FORMAT false
--------------------------------------------------------------
 ----------------------------------------------------------------
             Standard Nuclear Orientation (Angstroms)
    I     Atom           X                Y                Z
 ----------------------------------------------------------------
    1      C       4.5384919875     1.4747201728     0.8504715840
    2      C       3.3837228117     1.8070872215     0.2865788646
    3      C       2.3226825768     0.8920190506    -0.1163572536
    4      C       2.3310704391    -0.4725183227     0.1631309573
    5      C       1.3079017724    -1.3264484697    -0.2295322916
    6      C       1.3465602004    -2.7597547621     0.0541019340
    7      C       1.9684833706    -3.3247686679     1.0800953597
    8      C       0.2214999163    -0.7919867786    -0.9423103697
    9      O      -0.8178962895    -1.5918439816    -1.3590922957
   10      C      -1.7665155776    -1.8952103245    -0.3354900341
   11      C      -2.4292786624    -0.6437657755     0.1759157303
   12      C      -3.5317712716    -0.1117857345    -0.4799312978
   13      C      -4.0889992820     1.0817810601    -0.0567207502
   14      C      -3.5434547590     1.7590972031     1.0208036418
   15      C      -2.4411211948     1.2376183656     1.6760572510
   16      C      -1.8856230652     0.0424434881     1.2548304921
   17      C       0.1840729616     0.5637128125    -1.2349478000
   18      C       1.2203803948     1.3758394598    -0.8257385826
   19      F       1.1503737882     2.6910604415    -1.1278209946
   20      H       5.2646697386     2.2245994280     1.1119601878
   21      H       4.8133394438     0.4568864305     1.0680283850
   22      H       3.1784020486     2.8496552124     0.0818330204
   23      H       3.1713657139    -0.8903032090     0.6933415010
   24      H       0.7936463664    -3.3715947611    -0.6475862737
   25      H       2.5003765399    -2.7493529028     1.8194571998
   26      H       1.9568125543    -4.3910620315     1.2267070839
   27      H      -1.2722721738    -2.4295315908     0.4879554525
   28      H      -2.4884187286    -2.5576971546    -0.8180471444
   29      H      -3.9493913910    -0.6356788662    -1.3274953802
   30      H      -4.9480175796     1.4866746195    -0.5713051389
   31      H      -3.9755887754     2.6930748639     1.3480859655
   32      H      -2.0100203508     1.7638856788     2.5147797072
   33      H      -1.0223819256    -0.3616804291     1.7656280799
   34      H      -0.6513309681     0.9788526013    -1.7759599390
 ----------------------------------------------------------------
 Molecular Point Group                 C1    NOp =  1
 Largest Abelian Subgroup              C1    NOp =  1
 Nuclear Repulsion Energy =        1360.62594522 hartrees
 There are       67 alpha and       67 beta electrons
 Requested basis set is 6-31G(d)
 There are 106 shells and 315 basis functions

 Total QAlloc Memory Limit   4000 MB
 Mega-Array Size       188 MB
 MEM_STATIC part       192 MB
 A cutoff of  1.0D-08 yielded   3243 shell pairs
 There are     31120 function pairs
 Smallest overlap matrix eigenvalue = 3.18E-04

 Scale SEOQF with 1.000000e-02/1.000000e-01/1.000000e-01

 Standard Electronic Orientation quadrupole field applied
 Nucleus-field energy     =     0.0000000191 hartrees
 Guess from superposition of atomic densities
 Warning:  Energy on first SCF cycle will be non-variational
 SAD guess density has 134.000000 electrons

 -----------------------------------------------------------------------
  General SCF calculation program by
  Eric Jon Sundstrom, Paul Horn, Yuezhi Mao, Dmitri Zuev, Alec White,
  David Stuck, Shaama M.S., Shane Yost, Joonho Lee, David Small,
  Daniel Levine, Susi Lehtola, Hugh Burton, Evgeny Epifanovsky,
  Bang C. Huynh
 -----------------------------------------------------------------------
 Exchange:     0.2000 Hartree-Fock + 0.0800 Slater + 0.7200 B88
 Correlation:  0.1900 VWN1RPA + 0.8100 LYP
 Using SG-1 standard quadrature grid
 A restricted SCF calculation will be
 performed using DIIS
 SCF converges when DIIS error is below 1.0e-05
 ---------------------------------------
  Cycle       Energy         DIIS error
 ---------------------------------------
    1    -836.3068198987      4.57e-02  
    2    -831.5829343461      4.48e-03  
    3    -831.5497090073      4.83e-03  
    4    -831.8308782524      1.03e-03  
    5    -831.8442456094      3.57e-04  
    6    -831.8458470051      1.25e-04  
    7    -831.8460231464      3.21e-05  
    8    -831.8460330568      1.54e-05  
    9    -831.8460362662      3.35e-06  Convergence criterion met
 ---------------------------------------
 SCF time:   CPU 78.80s  wall 79.00s 
 SCF   energy in the final basis set =     -831.8460362662
 Total energy in the final basis set =     -831.8460362662
 
 --------------------------------------------------------------
 
                    Orbital Energies (a.u.)
 --------------------------------------------------------------
 
 Alpha MOs
 -- Occupied --
-24.7064 -19.1680 -10.2705 -10.2464 -10.2418 -10.2003 -10.1971 -10.1951
-10.1924 -10.1920 -10.1912 -10.1898 -10.1895 -10.1893 -10.1889 -10.1887
-10.1881 -10.1824 -10.1803  -1.2174  -1.0591  -0.8717  -0.8617  -0.8055
 -0.7894  -0.7718  -0.7500  -0.7342  -0.7270  -0.6845  -0.6432  -0.6223
 -0.6103  -0.5891  -0.5778  -0.5566  -0.5412  -0.5204  -0.5084  -0.4886
 -0.4829  -0.4776  -0.4651  -0.4597  -0.4503  -0.4422  -0.4400  -0.4275
 -0.4255  -0.4203  -0.4180  -0.3946  -0.3811  -0.3677  -0.3675  -0.3622
 -0.3572  -0.3448  -0.3437  -0.3352  -0.3112  -0.2812  -0.2780  -0.2538
 -0.2516  -0.2346  -0.2152
 -- Virtual --
 -0.0334  -0.0270  -0.0076   0.0002   0.0414   0.0734   0.0923   0.0967
  0.1188   0.1231   0.1290   0.1310   0.1365   0.1481   0.1555   0.1651
  0.1702   0.1786   0.1813   0.1894   0.1912   0.1992   0.2047   0.2136
  0.2251   0.2498   0.2652   0.2827   0.3078   0.3180   0.3228   0.3269
  0.3327   0.3379   0.3464   0.3584   0.3964   0.4027   0.4332   0.4526
  0.4593   0.4726   0.4865   0.5092   0.5143   0.5216   0.5331   0.5382
  0.5442   0.5528   0.5567   0.5612   0.5647   0.5800   0.5845   0.5930
  0.5965   0.5979   0.6043   0.6093   0.6136   0.6223   0.6270   0.6305
  0.6342   0.6473   0.6560   0.6620   0.6780   0.6812   0.6907   0.6979
  0.6992   0.7192   0.7293   0.7500   0.7767   0.8071   0.8155   0.8237
  0.8372   0.8394   0.8434   0.8472   0.8524   0.8584   0.8680   0.8716
  0.8743   0.8869   0.9003   0.9055   0.9174   0.9307   0.9426   0.9483
  0.9557   0.9686   0.9864   0.9888   1.0037   1.0083   1.0172   1.0284
  1.0408   1.0668   1.0897   1.0942   1.1313   1.1339   1.1535   1.1667
  1.1792   1.1943   1.1982   1.2130   1.2294   1.2423   1.2493   1.2617
  1.2664   1.2754   1.2923   1.3162   1.3378   1.3541   1.3789   1.4162
  1.4301   1.4339   1.4434   1.4497   1.4697   1.4792   1.4899   1.4911
  1.5035   1.5114   1.5150   1.5269   1.5522   1.5748   1.5882   1.6225
  1.6472   1.6726   1.6866   1.7480   1.7666   1.7816   1.7898   1.8064
  1.8159   1.8214   1.8340   1.8535   1.8590   1.8898   1.8945   1.9052
  1.9184   1.9347   1.9376   1.9646   1.9668   1.9749   1.9887   2.0189
  2.0260   2.0427   2.0467   2.0530   2.0793   2.0842   2.1152   2.1228
  2.1288   2.1492   2.1573   2.1739   2.1879   2.1935   2.2121   2.2254
  2.2449   2.2529   2.2679   2.2720   2.2932   2.3045   2.3144   2.3304
  2.3530   2.3651   2.3922   2.4169   2.4419   2.4452   2.4651   2.5111
  2.5207   2.5820   2.5855   2.5936   2.6104   2.6333   2.6383   2.6748
  2.6839   2.7027   2.7267   2.7434   2.7563   2.7613   2.7863   2.7906
  2.8224   2.8433   2.8707   2.9104   2.9731   3.0374   3.0570   3.0767
  3.1038   3.1481   3.2971   3.4482   3.4713   4.0772   4.0851   4.1020
  4.1137   4.1327   4.1414   4.1527   4.1794   4.2235   4.2762   4.2959
  4.3582   4.3834   4.4392   4.4914   4.5406   4.7266   4.8125   5.4925
 --------------------------------------------------------------
 
          Ground-State Mulliken Net Atomic Charges

     Atom                 Charge (a.u.)
  ----------------------------------------
      1 C                    -0.350331
      2 C                    -0.113719
      3 C                     0.117053
      4 C                    -0.281911
      5 C                     0.149827
      6 C                    -0.130236
      7 C                    -0.347637
      8 C                     0.281478
      9 O                    -0.524480
     10 C                    -0.134462
     11 C                     0.141313
     12 C                    -0.168418
     13 C                    -0.130060
     14 C                    -0.124180
     15 C                    -0.128505
     16 C                    -0.167012
     17 C                    -0.228488
     18 C                     0.304588
     19 F                    -0.292548
     20 H                     0.146231
     21 H                     0.141860
     22 H                     0.143642
     23 H                     0.135958
     24 H                     0.151890
     25 H                     0.142154
     26 H                     0.145451
     27 H                     0.149802
     28 H                     0.153855
     29 H                     0.129743
     30 H                     0.130693
     31 H                     0.131132
     32 H                     0.132097
     33 H                     0.137720
     34 H                     0.155502
  ----------------------------------------
  Sum of atomic charges =     0.000000

 -----------------------------------------------------------------
                    Cartesian Multipole Moments
 -----------------------------------------------------------------
    Charge (ESU x 10^10)
                 0.0000
    Dipole Moment (Debye)
         X      -0.7799      Y      -0.5848      Z       1.3933
       Tot       1.7005
    Quadrupole Moments (Debye-Ang)
        XX    -101.3700     XY      -2.1196     YY    -104.9034
        XZ       5.7220     YZ       0.3990     ZZ    -110.1628
    Octopole Moments (Debye-Ang^2)
       XXX      -1.5376    XXY      19.5794    XYY      -6.4942
       YYY       0.2754    XXZ      -4.1039    XYZ      -6.7703
       YYZ       7.8355    XZZ      -1.2407    YZZ       9.2332
       ZZZ      -9.2875
    Hexadecapole Moments (Debye-Ang^3)
      XXXX   -4097.0719   XXXY       7.9417   XXYY    -960.1950
      XYYY      21.6532   YYYY   -1863.7194   XXXZ     147.5286
      XXYZ      14.5026   XYYZ      10.5272   YYYZ      -2.3564
      XXZZ    -825.8343   XYZZ     -13.9906   YYZZ    -433.5430
      XZZZ      -0.2576   YZZZ     -17.3308   ZZZZ    -656.3872
 -----------------------------------------------------------------
Archival summary:
1\1\nia1977.scinet.local\SP\ProcedureUnspecified\6-31G*\111715\rhickman\MonFeb713:19:252022MonFeb713:19:252022\0\\#,ProcedureUnspecified,6-31G*,\\0,1\O\C,1,1.37616\C,2,1.38743,1,118.926\H,3,1.07839,2,120.19,1,0.324624,0\C,3,1.37874,2,119.517,1,-179.86,0\F,5,1.35128,3,117.906,2,-179.983,0\C,5,1.39727,3,122.662,2,-0.157492,0\C,7,1.39289,5,116.477,3,0.107052,0\H,8,1.07785,7,118.889,5,178.932,0\C,8,1.38934,7,122.75,5,-0.141488,0\C,1,1.42817,2,114.084,3,-100.341,0\H,11,1.0922,1,104.549,2,-177.871,0\H,11,1.09902,1,109.973,2,-60.4334,0\C,7,1.45791,5,119.81,3,-179.963,0\H,14,1.08214,7,114.477,5,6.04527,0\C,14,1.32738,7,126.398,5,-173.341,0\H,16,1.07612,14,121.051,7,179.853,0\H,16,1.0765,14,123.005,7,0.301646,0\C,10,1.46161,8,121.898,7,178.948,0\H,19,1.08279,10,114.51,8,-152.839,0\C,19,1.32616,10,125.474,8,28.2909,0\H,21,1.07639,19,121.49,10,-179.881,0\H,21,1.07734,19,122.339,10,0.983369,0\C,11,1.50562,1,111.056,2,61.9907,0\C,24,1.38875,11,120.494,1,84.6592,0\H,25,1.08039,24,119.446,11,3.68426,0\C,25,1.38355,24,120.38,11,-176.05,0\H,27,1.08011,25,119.866,24,-179.84,0\C,27,1.38471,25,120.088,24,0.430811,0\H,29,1.07989,27,120.081,25,179.708,0\C,29,1.38435,27,119.853,25,-0.165573,0\H,31,1.07994,29,120.126,27,179.789,0\C,31,1.38364,29,120.065,27,0.0181607,0\H,33,1.0814,31,119.966,29,179.782,0\\\@

 Total job time:  79.30s(wall), 79.08s(cpu) 
 Mon Feb  7 13:19:25 2022

        *************************************************************
        *                                                           *
        *  Thank you very much for using Q-Chem.  Have a nice day.  *
        *                                                           *
        *************************************************************


