
Running Job 1 of 1 fragments/C085/conf-8/spe_input.inp
qchem fragments/C085/conf-8/spe_input.inp_183222.0 /gpfs/fs0/scratch/a/aspuru/rhickman/descriptor_computation/qchem183222/ 0
/scinet/niagara/software/commercial/qc52/exe/qcprog.exe_s fragments/C085/conf-8/spe_input.inp_183222.0 /gpfs/fs0/scratch/a/aspuru/rhickman/descriptor_computation/qchem183222/
                  Welcome to Q-Chem
     A Quantum Leap Into The Future Of Chemistry


 Q-Chem 5.2, Q-Chem, Inc., Pleasanton, CA (2019)

 License issued to: SRG Alan Aspuru-Guzik, University of Toronto

 Yihan Shao,  Zhengting Gan,  E. Epifanovsky,  A. T. B. Gilbert,  M. Wormit,  
 J. Kussmann,  A. W. Lange,  A. Behn,  Jia Deng,  Xintian Feng,  D. Ghosh,  
 M. Goldey,  P. R. Horn,  L. D. Jacobson,  I. Kaliman,  T. Kus,  A. Landau,  
 Jie Liu,  E. I. Proynov,  R. M. Richard,  R. P. Steele,  E. J. Sundstrom,  
 H. L. Woodcock III,  P. M. Zimmerman,  D. Zuev,  B. Albrecht,  E. Alguire,  
 S. A. Baeppler,  D. Barton,  Z. Benda,  Y. A. Bernard,  E. J. Berquist,  
 K. B. Bravaya,  H. Burton,  D. Casanova,  Chun-Min Chang,  Yunqing Chen,  
 A. Chien,  K. D. Closser,  M. P. Coons,  S. Coriani,  S. Dasgupta,  
 A. L. Dempwolff,  M. Diedenhofen,  Hainam Do,  R. G. Edgar,  Po-Tung Fang,  
 S. Faraji,  S. Fatehi,  Qingguo Feng,  K. D. Fenk,  J. Fosso-Tande,  
 J. Gayvert,  Qinghui Ge,  A. Ghysels,  G. Gidofalvi,  J. Gomes,  
 J. Gonthier,  A. Gunina,  D. Hait,  M. W. D. Hanson-Heine,  
 P. H. P. Harbach,  A. W. Hauser,  M. F. Herbst,  J. E. Herr,  
 E. G. Hohenstein,  Z. C. Holden,  Kerwin Hui,  B. C. Huynh,  T.-C. Jagau,  
 Hyunjun Ji,  B. Kaduk,  K. Khistyaev,  Jaehoon Kim,  P. Klunzinger,  K. Koh,  
 D. Kosenkov,  L. Koulias,  T. Kowalczyk,  C. M. Krauter,  A. Kunitsa,  
 Ka Un Lao,  A. Laurent,  K. V. Lawler,  Joonho Lee,  D. Lefrancois,  
 S. Lehtola,  D. S. Levine,  Yi-Pei Li,  You-Sheng Lin,  Fenglai Liu,  
 E. Livshits,  A. Luenser,  P. Manohar,  E. Mansoor,  S. F. Manzer,  
 Shan-Ping Mao,  Yuezhi Mao,  N. Mardirossian,  A. V. Marenich,  
 T. Markovich,  L. A. Martinez-Martinez,  S. A. Maurer,  N. J. Mayhall,  
 S. C. McKenzie,  J.-M. Mewes,  P. Morgante,  A. F. Morrison,  
 J. W. Mullinax,  K. Nanda,  T. S. Nguyen-Beck,  R. Olivares-Amaya,  
 J. A. Parkhill,  Zheng Pei,  T. M. Perrine,  F. Plasser,  P. Pokhilko,  
 S. Prager,  A. Prociuk,  E. Ramos,  D. R. Rehn,  F. Rob,  M. Scheurer,  
 M. Schneider,  N. Sergueev,  S. M. Sharada,  S. Sharma,  D. W. Small,  
 T. Stauch,  T. Stein,  Yu-Chuan Su,  A. J. W. Thom,  A. Tkatchenko,  
 T. Tsuchimochi,  N. M. Tubman,  L. Vogt,  M. L. Vidal,  O. Vydrov,  
 M. A. Watson,  J. Wenzel,  M. de Wergifosse,  T. A. Wesolowski,  A. White,  
 J. Witte,  A. Yamada,  Jun Yang,  K. Yao,  S. Yeganeh,  S. R. Yost,  
 Zhi-Qiang You,  A. Zech,  Igor Ying Zhang,  Xing Zhang,  Yan Zhao,  
 Ying Zhu,  B. R. Brooks,  G. K. L. Chan,  C. J. Cramer,  M. S. Gordon,  
 W. J. Hehre,  A. Klamt,  M. W. Schmidt,  C. D. Sherrill,  D. G. Truhlar,  
 A. Aspuru-Guzik,  R. Baer,  A. T. Bell,  N. A. Besley,  Jeng-Da Chai,  
 A. E. DePrince, III,  R. A. DiStasio Jr.,  A. Dreuw,  B. D. Dunietz,  
 T. R. Furlani,  Chao-Ping Hsu,  Yousung Jung,  Jing Kong,  D. S. Lambrecht,  
 WanZhen Liang,  C. Ochsenfeld,  V. A. Rassolov,  L. V. Slipchenko,  
 J. E. Subotnik,  T. Van Voorhis,  J. M. Herbert,  A. I. Krylov,  
 P. M. W. Gill,  M. Head-Gordon

 Contributors to earlier versions of Q-Chem not listed above: 
 R. D. Adamson,  B. Austin,  J. Baker,  G. J. O. Beran,  K. Brandhorst,  
 S. T. Brown,  E. F. C. Byrd,  A. K. Chakraborty,  C.-L. Cheng,  
 Siu Hung Chien,  D. M. Chipman,  D. L. Crittenden,  H. Dachsel,  
 R. J. Doerksen,  A. D. Dutoi,  L. Fusti-Molnar,  W. A. Goddard III,  
 A. Golubeva-Zadorozhnaya,  S. R. Gwaltney,  G. Hawkins,  A. Heyden,  
 S. Hirata,  G. Kedziora,  F. J. Keil,  C. Kelley,  Jihan Kim,  R. A. King,  
 R. Z. Khaliullin,  P. P. Korambath,  W. Kurlancheek,  A. M. Lee,  M. S. Lee,  
 S. V. Levchenko,  Ching Yeh Lin,  D. Liotard,  R. C. Lochan,  I. Lotan,  
 P. E. Maslen,  N. Nair,  D. P. O'Neill,  D. Neuhauser,  E. Neuscamman,  
 C. M. Oana,  R. Olson,  B. Peters,  R. Peverati,  P. A. Pieniazek,  
 Y. M. Rhee,  J. Ritchie,  M. A. Rohrdanz,  E. Rosta,  N. J. Russ,  
 H. F. Schaefer III,  N. E. Schultz,  N. Shenvi,  A. C. Simmonett,  A. Sodt,  
 D. Stuck,  K. S. Thanthiriwatte,  V. Vanovschi,  Tao Wang,  A. Warshel,  
 C. F. Williams,  Q. Wu,  X. Xu,  W. Zhang

 Please cite Q-Chem as follows:
 Y. Shao et al., Mol. Phys. 113, 184-215 (2015)
 DOI: 10.1080/00268976.2014.952696

 Q-Chem 5.2.1 for Intel X86 EM64T Linux

 Parts of Q-Chem use Armadillo 8.300.2 (Tropical Shenanigans).
 http://arma.sourceforge.net/

 Q-Chem begins on Fri Feb  4 12:06:37 2022  

Host: 
0

     Scratch files written to /gpfs/fs0/scratch/a/aspuru/rhickman/descriptor_computation/qchem183222//
 Jul1719 |scratch|qcdevops|jenkins|workspace|build_RNUM -1
Processing $rem in /scinet/niagara/software/commercial/qc52/config/preferences:
	 MEM_TOTAL  4000 
NAlpha2: 168
NElect   168
Mult     1

Checking the input file for inconsistencies... 	...done.

--------------------------------------------------------------
User input:
--------------------------------------------------------------
$molecule
0 1
C         2.66978320570000    4.52458795730000    2.01925857870000
C         1.71729053000000    3.70409611910000    1.58469636070000
C         1.78113118320000    2.93465048110000    0.37350234570000
C         0.82625289220000    2.08194924230000   -0.11703027620000
C         1.16356687220000    1.45313280780000   -1.33150080270000
C         0.23441394770000    0.48457399360000   -1.99311614760000
C         0.56497764380000   -0.96866249670000   -1.62406768910000
C         0.33197662420000   -1.25569843110000   -0.14320461510000
C         0.60464440570000   -2.71884137910000    0.19663450870000
C         0.50743553040000   -3.02447192460000    1.69270128360000
C        -0.85702625860000   -2.73366415580000    2.32054620360000
C        -1.98925187340000   -3.55113415830000    1.70324439190000
C        -3.31843635890000   -3.39214780630000    2.44285778180000
C        -3.87713465800000   -1.96667350570000    2.46415919430000
C        -4.07429758220000   -1.32586436760000    1.08955770340000
C        -5.06531058180000   -2.07441513850000    0.20159977310000
C        -5.31397347120000   -1.33348822060000   -1.10696482080000
C         2.40935057210000    1.83335807510000   -1.78661376570000
C         3.17719198790000    1.50828973890000   -2.96039239260000
C         2.95207723860000    0.56341573490000   -3.87104076400000
S         3.14595247320000    2.98022150000000   -0.69477792300000
H         2.56681562890000    5.07728563320000    2.93604577230000
H         3.58319320820000    4.66552045850000    1.46507074880000
H         0.80473418820000    3.57310913380000    2.15310313790000
H        -0.11051741670000    1.91352171880000    0.38650428410000
H         0.27952298890000    0.61111939570000   -3.07614259220000
H        -0.78680389280000    0.70547068600000   -1.67295304910000
H         1.60832191080000   -1.17854674120000   -1.86817577330000
H        -0.06199550930000   -1.63513742530000   -2.22228775920000
H        -0.70097848980000   -1.00536309560000    0.10561971660000
H         0.98541764580000   -0.61887919820000    0.45719356960000
H         1.61393354510000   -2.97355763700000   -0.13763314690000
H        -0.08850064860000   -3.35585458990000   -0.35615294260000
H         1.26283932770000   -2.43523766020000    2.21917659220000
H         0.74843254110000   -4.07970190750000    1.84550217430000
H        -1.07475272010000   -1.66944408310000    2.23074690810000
H        -0.79836034590000   -2.96525431000000    3.38744533160000
H        -1.71001462470000   -4.60808765030000    1.72378826260000
H        -2.12314038590000   -3.27008144290000    0.65885844150000
H        -3.18725226830000   -3.71853863370000    3.47804304190000
H        -4.05353172540000   -4.05775289140000    1.98555122590000
H        -3.21188403950000   -1.33087705790000    3.05218416610000
H        -4.84080706890000   -1.98918245150000    2.98004591280000
H        -3.11530508060000   -1.25168865440000    0.57356611060000
H        -4.44028553690000   -0.30615053030000    1.23895622240000
H        -6.01013167990000   -2.19315656620000    0.73720205790000
H        -4.68156928410000   -3.07121079660000   -0.02172216750000
H        -5.72306768770000   -0.34358915270000   -0.91506642640000
H        -6.01809860390000   -1.88009576940000   -1.73017451220000
H        -4.38507589770000   -1.21657332250000   -1.66189889880000
H         4.05525338390000    2.13313385520000   -3.07847230480000
H         2.12737755720000   -0.12245890400000   -3.82814248990000
H         3.61970675680000    0.44725959420000   -4.70769758410000
$end

$rem
BASIS = 6-31G*
GUI = 2
METHOD = B3LYP
PRINT_ORBITALS false
MOLDEN_FORMAT false
--------------------------------------------------------------
 ----------------------------------------------------------------
             Standard Nuclear Orientation (Angstroms)
    I     Atom           X                Y                Z
 ----------------------------------------------------------------
    1      C      -4.4080827321    -3.6751550506    -0.2394353727
    2      C      -3.3055781404    -2.9929681739    -0.5367536628
    3      C      -3.1862351883    -1.5620480681    -0.5001740042
    4      C      -2.0763554622    -0.8157855779    -0.8014604058
    5      C      -2.2474874244     0.5763316207    -0.6716411232
    6      C      -1.1286346368     1.5295732278    -0.9521140747
    7      C      -0.3733675169     1.9176961385     0.3270644126
    8      C       0.3593361977     0.7312079916     0.9475687966
    9      C       1.1560243768     1.1444746919     2.1825279922
   10      C       1.8038633096    -0.0345193571     2.9114677294
   11      C       2.7931936541    -0.8442380908     2.0711728899
   12      C       3.9795265985    -0.0190099900     1.5783582175
   13      C       5.0536444095    -0.8618106661     0.8891601534
   14      C       4.5849177410    -1.6000599311    -0.3677638117
   15      C       3.9773628357    -0.7114688895    -1.4541899835
   16      C       4.9466470757     0.3316764952    -2.0048623693
   17      C       4.3318751765     1.1106406824    -3.1617623364
   18      C      -3.5221754457     0.9085012257    -0.2611415597
   19      C      -4.1900304811     2.1605710226    -0.0176317996
   20      C      -3.6704568715     3.3841869962     0.0568745997
   21      S      -4.4987476796    -0.5235234123    -0.0476100823
   22      H      -4.4395370632    -4.7491707808    -0.2850055101
   23      H      -5.3137566585    -3.1731918779     0.0590468976
   24      H      -2.4030579450    -3.5120155383    -0.8351662331
   25      H      -1.1493678146    -1.2624284178    -1.1187261784
   26      H      -1.5200067917     2.4253070415    -1.4373806153
   27      H      -0.4288131558     1.0535326304    -1.6433599648
   28      H      -1.0767827320     2.3237411832     1.0568190763
   29      H       0.3505080600     2.7002863930     0.0847669505
   30      H       1.0311152107     0.3029428110     0.2013252113
   31      H      -0.3650829791    -0.0370018617     1.2269831159
   32      H       0.4824288888     1.6477277580     2.8813021150
   33      H       1.9221850173     1.8674207234     1.8958979660
   34      H       1.0146397430    -0.7063568806     3.2589855993
   35      H       2.3218664982     0.3485434685     3.7945722286
   36      H       2.2686436682    -1.2847801708     1.2233503398
   37      H       3.1690852856    -1.6672010413     2.6850025908
   38      H       4.4362357188     0.4844272793     2.4348124610
   39      H       3.6342514440     0.7542337071     0.8924004720
   40      H       5.4267613231    -1.6059144077     1.5979916927
   41      H       5.8932240096    -0.2130287379     0.6308721012
   42      H       3.8492164903    -2.3558692937    -0.0848066541
   43      H       5.4441620153    -2.1285054913    -0.7893736332
   44      H       3.0893960187    -0.2076225948    -1.0680943716
   45      H       3.6517657490    -1.3543984361    -2.2768147739
   46      H       5.8569324374    -0.1671911561    -2.3456964468
   47      H       5.2257980140     1.0303449727    -1.2145024710
   48      H       4.0676501873     0.4405488700    -3.9773880804
   49      H       5.0317279899     1.8519813025    -3.5406850976
   50      H       3.4295097589     1.6259244118    -2.8382025155
   51      H      -5.2582773469     2.0490208678     0.1299149631
   52      H      -2.6230525862     3.5951974722    -0.0471094801
   53      H      -4.3073304356     4.2330926053     0.2384438353
 ----------------------------------------------------------------
 Molecular Point Group                 C1    NOp =  1
 Largest Abelian Subgroup              C1    NOp =  1
 Nuclear Repulsion Energy =        1777.86952357 hartrees
 There are       84 alpha and       84 beta electrons
 Requested basis set is 6-31G(d)
 There are 149 shells and 383 basis functions

 Total QAlloc Memory Limit   4000 MB
 Mega-Array Size       188 MB
 MEM_STATIC part       192 MB
 A cutoff of  1.0D-08 yielded   5192 shell pairs
 There are     35134 function pairs
 Smallest overlap matrix eigenvalue = 6.64E-04

 Scale SEOQF with 1.000000e-02/1.000000e-01/1.000000e-01

 Standard Electronic Orientation quadrupole field applied
 Nucleus-field energy     =     0.0000000032 hartrees
 Guess from superposition of atomic densities
 Warning:  Energy on first SCF cycle will be non-variational
 SAD guess density has 168.000000 electrons

 -----------------------------------------------------------------------
  General SCF calculation program by
  Eric Jon Sundstrom, Paul Horn, Yuezhi Mao, Dmitri Zuev, Alec White,
  David Stuck, Shaama M.S., Shane Yost, Joonho Lee, David Small,
  Daniel Levine, Susi Lehtola, Hugh Burton, Evgeny Epifanovsky,
  Bang C. Huynh
 -----------------------------------------------------------------------
 Exchange:     0.2000 Hartree-Fock + 0.0800 Slater + 0.7200 B88
 Correlation:  0.1900 VWN1RPA + 0.8100 LYP
 Using SG-1 standard quadrature grid
 A restricted SCF calculation will be
 performed using DIIS
 SCF converges when DIIS error is below 1.0e-05
 ---------------------------------------
  Cycle       Energy         DIIS error
 ---------------------------------------
    1   -1183.8132714042      4.02e-02  
    2   -1179.1071486775      4.70e-03  
    3   -1178.9568223603      5.46e-03  
    4   -1179.5404802634      9.36e-04  
    5   -1179.5561490730      4.07e-04  
    6   -1179.5593496514      1.02e-04  
    7   -1179.5595311193      3.94e-05  
    8   -1179.5595589761      1.36e-05  
    9   -1179.5595624197      2.33e-06  Convergence criterion met
 ---------------------------------------
 SCF time:   CPU 127.15s  wall 127.00s 
 SCF   energy in the final basis set =    -1179.5595624197
 Total energy in the final basis set =    -1179.5595624197
 
 --------------------------------------------------------------
 
                    Orbital Energies (a.u.)
 --------------------------------------------------------------
 
 Alpha MOs
 -- Occupied --
-88.8988 -10.2156 -10.2147 -10.1979 -10.1972 -10.1921 -10.1862 -10.1857
-10.1809 -10.1803 -10.1788 -10.1744 -10.1726 -10.1722 -10.1714 -10.1712
-10.1710 -10.1709 -10.1708 -10.1702 -10.1684  -7.9609  -5.9248  -5.9214
 -5.9178  -0.8893  -0.8190  -0.8112  -0.8017  -0.7875  -0.7719  -0.7611
 -0.7370  -0.7175  -0.7032  -0.6811  -0.6515  -0.6270  -0.6216  -0.5979
 -0.5877  -0.5866  -0.5599  -0.5380  -0.5335  -0.5146  -0.4949  -0.4815
 -0.4753  -0.4590  -0.4565  -0.4495  -0.4428  -0.4350  -0.4335  -0.4216
 -0.4190  -0.4159  -0.4017  -0.3966  -0.3930  -0.3860  -0.3796  -0.3766
 -0.3714  -0.3628  -0.3581  -0.3526  -0.3514  -0.3444  -0.3371  -0.3352
 -0.3328  -0.3231  -0.3202  -0.3166  -0.3146  -0.3084  -0.3027  -0.3016
 -0.2974  -0.2688  -0.2444  -0.1970
 -- Virtual --
 -0.0498   0.0123   0.0263   0.0632   0.0764   0.0903   0.0929   0.0998
  0.1042   0.1063   0.1193   0.1204   0.1276   0.1299   0.1350   0.1380
  0.1441   0.1508   0.1532   0.1611   0.1662   0.1734   0.1750   0.1759
  0.1801   0.1818   0.1866   0.1887   0.1953   0.1979   0.2026   0.2057
  0.2078   0.2120   0.2159   0.2228   0.2251   0.2390   0.2440   0.2506
  0.2532   0.2551   0.2578   0.2653   0.2693   0.2718   0.2794   0.2902
  0.3016   0.3070   0.3147   0.3200   0.3235   0.3362   0.3469   0.3634
  0.3666   0.4033   0.4468   0.4646   0.4849   0.4906   0.4971   0.5012
  0.5076   0.5149   0.5229   0.5253   0.5285   0.5378   0.5481   0.5559
  0.5573   0.5630   0.5681   0.5771   0.5813   0.5863   0.5917   0.5960
  0.6098   0.6188   0.6229   0.6308   0.6423   0.6510   0.6537   0.6668
  0.6711   0.6775   0.6799   0.6814   0.6873   0.6895   0.7006   0.7070
  0.7099   0.7182   0.7315   0.7424   0.7592   0.7688   0.7798   0.7974
  0.8044   0.8179   0.8248   0.8367   0.8405   0.8485   0.8506   0.8587
  0.8649   0.8735   0.8745   0.8771   0.8781   0.8815   0.8845   0.8882
  0.8928   0.8936   0.9027   0.9104   0.9117   0.9201   0.9231   0.9301
  0.9362   0.9414   0.9479   0.9550   0.9603   0.9635   0.9659   0.9755
  0.9789   0.9908   0.9939   0.9971   0.9986   1.0074   1.0133   1.0229
  1.0305   1.0312   1.0360   1.0461   1.0543   1.0667   1.0744   1.0872
  1.1018   1.1186   1.1268   1.1375   1.1580   1.1765   1.2138   1.2164
  1.2444   1.2742   1.2872   1.3000   1.3018   1.3448   1.3541   1.3673
  1.3780   1.4027   1.4254   1.4329   1.4408   1.4613   1.4664   1.4831
  1.4915   1.4974   1.5148   1.5486   1.5624   1.5680   1.6011   1.6105
  1.6278   1.6346   1.6456   1.6644   1.6694   1.7052   1.7173   1.7258
  1.7435   1.7563   1.7877   1.7954   1.8231   1.8347   1.8446   1.8614
  1.8697   1.8728   1.8969   1.9081   1.9144   1.9237   1.9339   1.9461
  1.9509   1.9669   1.9778   1.9837   1.9901   1.9982   2.0066   2.0112
  2.0121   2.0194   2.0348   2.0461   2.0544   2.0679   2.0755   2.0908
  2.1049   2.1247   2.1437   2.1500   2.1749   2.1862   2.1962   2.2142
  2.2387   2.2413   2.2506   2.2560   2.2772   2.2963   2.3070   2.3328
  2.3456   2.3518   2.3637   2.3673   2.3712   2.3800   2.4003   2.4114
  2.4230   2.4394   2.4572   2.4604   2.4674   2.4874   2.4966   2.5019
  2.5199   2.5574   2.5618   2.5790   2.6089   2.6144   2.6507   2.6632
  2.6818   2.6991   2.7450   2.7527   2.7580   2.7803   2.7900   2.8121
  2.8494   2.8849   2.9334   3.0150   3.1133   3.2180   3.9740   4.0914
  4.1153   4.1201   4.1558   4.1571   4.1826   4.2117   4.2391   4.2647
  4.3170   4.3663   4.4075   4.4419   4.4597   4.4829   4.5297   4.5378
  4.5713   4.6190   4.6658
 --------------------------------------------------------------
 
          Ground-State Mulliken Net Atomic Charges

     Atom                 Charge (a.u.)
  ----------------------------------------
      1 C                    -0.374414
      2 C                    -0.054880
      3 C                    -0.137656
      4 C                    -0.177592
      5 C                     0.181194
      6 C                    -0.361009
      7 C                    -0.255405
      8 C                    -0.272970
      9 C                    -0.258677
     10 C                    -0.257552
     11 C                    -0.259631
     12 C                    -0.259465
     13 C                    -0.260917
     14 C                    -0.260331
     15 C                    -0.259753
     16 C                    -0.250896
     17 C                    -0.441545
     18 C                    -0.192497
     19 C                    -0.089188
     20 C                    -0.355654
     21 S                     0.230761
     22 H                     0.146373
     23 H                     0.155812
     24 H                     0.137036
     25 H                     0.134675
     26 H                     0.149789
     27 H                     0.141268
     28 H                     0.147366
     29 H                     0.129003
     30 H                     0.136005
     31 H                     0.146609
     32 H                     0.129590
     33 H                     0.131990
     34 H                     0.127511
     35 H                     0.125528
     36 H                     0.137080
     37 H                     0.127032
     38 H                     0.127007
     39 H                     0.135723
     40 H                     0.126833
     41 H                     0.130833
     42 H                     0.131234
     43 H                     0.126623
     44 H                     0.136435
     45 H                     0.125708
     46 H                     0.130902
     47 H                     0.137308
     48 H                     0.141997
     49 H                     0.141680
     50 H                     0.139535
     51 H                     0.136497
     52 H                     0.152693
     53 H                     0.144402
  ----------------------------------------
  Sum of atomic charges =     0.000000

 -----------------------------------------------------------------
                    Cartesian Multipole Moments
 -----------------------------------------------------------------
    Charge (ESU x 10^10)
                -0.0000
    Dipole Moment (Debye)
         X       1.0548      Y       0.1085      Z      -0.1222
       Tot       1.0674
    Quadrupole Moments (Debye-Ang)
        XX    -141.0120     XY      -0.8285     YY    -133.4046
        XZ      -2.1770     YZ       1.2364     ZZ    -143.3192
    Octopole Moments (Debye-Ang^2)
       XXX      -5.0745    XXY       7.1411    XYY     -21.7581
       YYY      -8.4940    XXZ      11.2211    XYZ      -0.2551
       YYZ      -1.5782    XZZ      17.4737    YZZ      -1.9272
       ZZZ       5.6171
    Hexadecapole Moments (Debye-Ang^3)
      XXXX  -10494.2216   XXXY     -27.3844   XXYY   -2083.3686
      XYYY      34.8464   YYYY   -2364.2255   XXXZ     -94.9335
      XXYZ       5.1791   XYYZ     -10.5853   YYYZ      16.5871
      XXZZ   -2149.1473   XYZZ     -15.1203   YYZZ    -768.2157
      XZZZ      -7.3743   YZZZ       6.1261   ZZZZ   -1946.7851
 -----------------------------------------------------------------
Archival summary:
1\1\nia0001.scinet.local\SP\ProcedureUnspecified\6-31G*\12032\rhickman\FriFeb412:08:452022FriFeb412:08:452022\0\\#,ProcedureUnspecified,6-31G*,\\0,1\S\C,1,1.73379\C,2,1.37095,1,110.131\H,3,1.07678,2,122.406,1,-179.277,0\C,3,1.40859,2,114.794,1,0.335291,0\C,5,1.37974,3,112.185,2,-0.0558028,0\C,2,1.43635,1,122.716,3,-179.942,0\H,7,1.08305,2,114.533,1,-179.842,0\C,7,1.33015,2,125.037,1,0.181754,0\H,9,1.07544,7,121.8,2,179.963,0\H,9,1.07764,7,121.306,2,-0.0246541,0\C,6,1.43979,5,133.489,3,-178.359,0\H,12,1.08414,6,112.991,5,169.754,0\C,12,1.33144,6,128.876,5,-10.9221,0\H,14,1.0735,12,123.778,6,-1.05674,0\H,14,1.07667,12,120.212,6,179.443,0\C,5,1.49638,3,121.431,2,179.48,0\H,17,1.09133,5,109.759,3,142.545,0\H,17,1.09279,5,108.656,3,24.875,0\C,17,1.53537,5,111.881,3,-95.2545,0\H,20,1.09188,17,109.507,5,-55.5732,0\H,20,1.09323,17,108.785,5,-173.36,0\C,20,1.52631,17,112.231,5,65.7016,0\H,23,1.09159,20,108.813,17,56.1543,0\H,23,1.09225,20,109.412,17,-61.4944,0\C,23,1.52664,20,111.651,17,177.452,0\H,26,1.0917,23,109.458,20,-62.2889,0\H,26,1.09329,23,108.67,20,54.4579,0\C,26,1.53006,23,113.438,20,174.747,0\H,29,1.09313,26,108.391,23,-178.153,0\H,29,1.09316,26,108.623,23,-61.6409,0\C,29,1.52987,26,114.832,23,59.9336,0\H,32,1.08997,29,109.265,26,-62.0562,0\H,32,1.09332,29,108.201,26,-178.617,0\C,32,1.52684,29,113.183,26,60.8322,0\H,35,1.0898,32,109.906,29,-64.7472,0\H,35,1.09341,32,108.698,29,52.505,0\C,35,1.52939,32,113.16,29,172.808,0\H,38,1.09203,35,108.612,32,-176.077,0\H,38,1.09332,35,108.819,32,-59.7199,0\C,38,1.5312,35,114.873,32,61.4297,0\H,41,1.09205,38,109.1,35,-66.1863,0\H,41,1.0933,38,108,35,177.671,0\C,41,1.52939,38,115.125,35,56.1402,0\H,44,1.09152,41,109.883,38,-61.3444,0\H,44,1.09366,41,108.121,38,-178.004,0\C,44,1.52673,41,113.64,38,61.3274,0\H,47,1.09121,44,109.794,41,-63.8468,0\H,47,1.09255,44,109.239,41,54.1301,0\C,47,1.52419,44,111.524,41,175.218,0\H,50,1.08764,47,110.686,44,179.771,0\H,50,1.08816,47,110.619,44,-60.12,0\H,50,1.08833,47,110.532,44,59.7548,0\\\@

 Total job time:  127.93s(wall), 127.57s(cpu) 
 Fri Feb  4 12:08:45 2022

        *************************************************************
        *                                                           *
        *  Thank you very much for using Q-Chem.  Have a nice day.  *
        *                                                           *
        *************************************************************


