23
 energy: -50.744442185761 gnorm: 0.000075111501 xtb: 6.5.0 (unknown)
C           -2.45727746600000        3.67231710760000        0.24916859830000
C           -2.27520030400000        2.44803756680000       -0.22630484250000
C           -1.01882146700000        1.70304203990000       -0.12317031990000
C            0.19468235970000        2.37413225380000       -0.25445802700000
C            1.39916939430000        1.70131174550000       -0.20786641720000
C            1.39644080490000        0.32354738180000       -0.03416680480000
C            2.69257230410000       -0.43025287240000        0.05410387100000
F            3.71442925200000        0.21577298060000       -0.52656217370000
F            3.06316475120000       -0.64109399780000        1.33446141600000
F            2.63107217810000       -1.64161606500000       -0.51823725530000
C            0.20415909820000       -0.36867244550000        0.10701223350000
C           -1.01233673320000        0.30733515820000        0.06520384330000
C           -2.27208542040000       -0.39913020140000        0.27393267210000
C           -2.51460650760000       -1.67600425980000        0.01828811730000
F           -1.68784388600000       -2.56537000670000       -0.50969341610000
F           -3.68871747360000       -2.25348181090000        0.24822768630000
H           -3.39656150830000        4.18596372830000        0.13895952930000
H           -1.68537148770000        4.19805208560000        0.78586481180000
H           -3.08532946850000        1.94312291000000       -0.73516172410000
H            0.18826339240000        3.44056479660000       -0.41714276620000
H            2.33164684780000        2.23304324190000       -0.31512752320000
H            0.23114972540000       -1.43540856290000        0.26201683380000
H           -3.09813092320000        0.16310493990000        0.68168416710000
