
Running Job 1 of 1 tidas/B032/conf-5/spe_input.inp
qchem tidas/B032/conf-5/spe_input.inp_239727.0 /home/a/aspuru/seifridm/acdc_laser/descriptor_computation/qchem239727/ 0
/gpfs/fs1/scinet/niagara/software/commercial/qc54/exe/qcprog.exe_s tidas/B032/conf-5/spe_input.inp_239727.0 /home/a/aspuru/seifridm/acdc_laser/descriptor_computation/qchem239727/
                  Welcome to Q-Chem
     A Quantum Leap Into The Future Of Chemistry


 Q-Chem 5.4, Q-Chem, Inc., Pleasanton, CA (2021)

 License issued to: SRG Alan Aspuru-Guzik, University of Toronto

 E. Epifanovsky,  A. T. B. Gilbert,  Xintian Feng,  Joonho Lee,  Yuezhi Mao,  
 N. Mardirossian,  P. Pokhilko,  A. White,  M. Wormit,  M. P. Coons,  
 A. L. Dempwolff,  Zhengting Gan,  D. Hait,  P. R. Horn,  L. D. Jacobson,  
 I. Kaliman,  J. Kussmann,  A. W. Lange,  Ka Un Lao,  D. S. Levine,  Jie Liu,  
 S. C. McKenzie,  A. F. Morrison,  K. Nanda,  F. Plasser,  D. R. Rehn,  
 M. L. Vidal,  Zhi-Qiang You,  Ying Zhu,  B. Alam,  B. Albrecht,  
 A. Aldossary,  E. Alguire,  J. H. Andersen,  D. Barton,  K. Begam,  A. Behn,  
 Y. A. Bernard,  E. J. Berquist,  H. Burton,  A. Carreras,  K. Carter-Fenk,  
 Romit Chakraborty,  A. D. Chien,  K. D. Closser,  V. Cofer-Shabica,  
 S. Dasgupta,  Jia Deng,  M. de Wergifosse,  M. Diedenhofen,  Hainam Do,  
 S. Ehlert,  Po-Tung Fang,  S. Fatehi,  Qingguo Feng,  T. Friedhoff,  
 J. Gayvert,  Qinghui Ge,  G. Gidofalvi,  M. Goldey,  J. Gomes,  
 C. Gonzalez-Espinoza,  S. Gulania,  A. Gunina,  M. W. D. Hanson-Heine,  
 P. H. P. Harbach,  A. W. Hauser,  M. F. Herbst,  M. Hernandez Vera,  
 M. Hodecker,  Z. C. Holden,  S. Houck,  Xunkun Huang,  Kerwin Hui,  
 B. C. Huynh,  M. Ivanov,  Hyunjun Ji,  Hanjie Jiang,  B. Kaduk,  S. Kaehler,  
 K. Khistyaev,  Jaehoon Kim,  P. Klunzinger,  Z. Koczor-Benda,  
 Joong Hoon Koh,  D. Kosenkov,  L. Koulias,  T. Kowalczyk,  C. M. Krauter,  
 K. Kue,  A. Kunitsa,  T. Kus,  A. Landau,  K. V. Lawler,  D. Lefrancois,  
 S. Lehtola,  Rain Li,  Yi-Pei Li,  Jiashu Liang,  M. Liebenthal,  
 Hung-Hsuan Lin,  You-Sheng Lin,  Fenglai Liu,  Kuan-Yu Liu,  
 M. Loipersberger,  A. Luenser,  A. Manjanath,  P. Manohar,  E. Mansoor,  
 S. F. Manzer,  Shan-Ping Mao,  A. V. Marenich,  T. Markovich,  S. Mason,  
 S. A. Maurer,  P. F. McLaughlin,  M. F. S. J. Menger,  J.-M. Mewes,  
 S. A. Mewes,  P. Morgante,  J. W. Mullinax,  K. J. Oosterbaan,  G. Paran,  
 Alexander C. Paul,  Suranjan K. Paul,  F. Pavosevic,  Zheng Pei,  S. Prager,  
 E. I. Proynov,  E. Ramos,  B. Rana,  A. E. Rask,  A. Rettig,  R. M. Richard,  
 F. Rob,  E. Rossomme,  T. Scheele,  M. Scheurer,  M. Schneider,  
 N. Sergueev,  S. M. Sharada,  W. Skomorowski,  D. W. Small,  C. J. Stein,  
 Yu-Chuan Su,  E. J. Sundstrom,  Zhen Tao,  J. Thirman,  T. Tsuchimochi,  
 N. M. Tubman,  S. P. Veccham,  O. Vydrov,  J. Wenzel,  J. Witte,  A. Yamada,  
 Kun Yao,  S. Yeganeh,  S. R. Yost,  A. Zech,  Igor Ying Zhang,  Xing Zhang,  
 Yu Zhang,  D. Zuev,  A. Aspuru-Guzik,  A. T. Bell,  N. A. Besley,  
 K. B. Bravaya,  B. R. Brooks,  D. Casanova,  Jeng-Da Chai,  S. Coriani,  
 C. J. Cramer,  A. E. DePrince, III,  R. A. DiStasio Jr.,  A. Dreuw,  
 B. D. Dunietz,  T. R. Furlani,  W. A. Goddard III,  S. Grimme,  
 S. Hammes-Schiffer,  T. Head-Gordon,  W. J. Hehre,  Chao-Ping Hsu,  
 T.-C. Jagau,  Yousung Jung,  A. Klamt,  Jing Kong,  D. S. Lambrecht,  
 WanZhen Liang,  N. J. Mayhall,  C. W. McCurdy,  J. B. Neaton,  T. Neudecker,  
 C. Ochsenfeld,  J. A. Parkhill,  R. Peverati,  V. A. Rassolov,  Yihan Shao,  
 L. V. Slipchenko,  R. P. Steele,  J. E. Subotnik,  A. J. W. Thom,  
 A. Tkatchenko,  D. G. Truhlar,  T. Van Voorhis,  T. A. Wesolowski,  
 K. B. Whaley,  H. L. Woodcock III,  P. M. Zimmerman,  S. Faraji,  
 P. M. W. Gill,  M. Head-Gordon,  J. M. Herbert,  A. I. Krylov

 Additional authors since Version 5.4.0: 
 Chandrima Chakravarty,  L. Cunha,  R. Kang,  Yongbin Kim,  S. Kotaru,  
 Shaozhi Li,  Xiangyuan Li,  F. Matz,  A. Molle,  V. Parravicini,  
 Haisheng Ren,  Hengyuan Shen,  Yingli Su,  Hung-Yi Tsai,  C. Utku,  
 Fang Wang,  Jeff Yang,  F. Zeller

 Contributors to earlier versions of Q-Chem not listed above: 
 R. D. Adamson,  B. Austin,  R. Baer,  J. Baker,  G. J. O. Beran,  
 K. Brandhorst,  S. T. Brown,  E. F. C. Byrd,  Arup K. Chakraborty,  
 G. K. L. Chan,  Chun-Min Chang,  Yunqing Chen,  C.-L. Cheng,  
 Siu Hung Chien,  D. M. Chipman,  D. L. Crittenden,  H. Dachsel,  
 R. J. Doerksen,  A. D. Dutoi,  R. G. Edgar,  J. Fosso-Tande,  
 L. Fusti-Molnar,  D. Ghosh,  A. Ghysels,  A. Golubeva-Zadorozhnaya,  
 J. Gonthier,  M. S. Gordon,  S. R. Gwaltney,  G. Hawkins,  J. E. Herr,  
 A. Heyden,  S. Hirata,  E. G. Hohenstein,  G. Kedziora,  F. J. Keil,  
 C. Kelley,  Jihan Kim,  R. A. King,  R. Z. Khaliullin,  P. P. Korambath,  
 W. Kurlancheek,  A. Laurent,  A. M. Lee,  M. S. Lee,  S. V. Levchenko,  
 Ching Yeh Lin,  D. Liotard,  E. Livshits,  R. C. Lochan,  I. Lotan,  
 L. A. Martinez-Martinez,  P. E. Maslen,  N. Nair,  D. P. O'Neill,  
 D. Neuhauser,  E. Neuscamman,  C. M. Oana,  R. Olivares-Amaya,  R. Olson,  
 T. M. Perrine,  B. Peters,  P. A. Pieniazek,  A. Prociuk,  Y. M. Rhee,  
 J. Ritchie,  M. A. Rohrdanz,  E. Rosta,  N. J. Russ,  H. F. Schaefer III,  
 M. W. Schmidt,  N. E. Schultz,  S. Sharma,  N. Shenvi,  C. D. Sherrill,  
 A. C. Simmonett,  A. Sodt,  T. Stein,  D. Stuck,  K. S. Thanthiriwatte,  
 V. Vanovschi,  L. Vogt,  Tao Wang,  A. Warshel,  M. A. Watson,  
 C. F. Williams,  Q. Wu,  X. Xu,  Jun Yang,  W. Zhang,  Yan Zhao

   Please cite Q-Chem as follows:
  "Software for the frontiers of quantum chemistry:
   An overview of developments in the Q-Chem 5 package"
   J. Chem. Phys. 155, 084801 (2021)
   https://doi.org/10.1063/5.0055522 (open access)

 Q-Chem 5.4.2 for Intel X86 EM64T Linux

 Parts of Q-Chem use Armadillo 9.900.5 (Nocturnal Misbehaviour).
 http://arma.sourceforge.net/

 Q-Chem begins on Fri Aug 12 12:43:23 2022  

 Host: 
0

     Scratch files written to /home/a/aspuru/seifridm/acdc_laser/descriptor_computation/qchem239727//
 Dec1321 |scratch|qcdevops|jenkins|workspace|build_RNUM 6959   
 Processing $rem in /gpfs/fs1/scinet/niagara/software/commercial/qc54/config/preferences:
 Processing $rem in /home/a/aspuru/seifridm/.qchemrc:

 Checking the input file for inconsistencies... 	...done.

--------------------------------------------------------------
User input:
--------------------------------------------------------------
$molecule
0 1
C           -4.00924581420000        0.83484224740000        0.66832711250000
C           -2.98130855820000        0.85181917130000       -0.16795634380000
C           -1.89854825820000       -0.13505882350000       -0.15932582450000
C           -2.20393156580000       -1.46754664120000        0.10679598230000
C           -1.21784854310000       -2.43471611600000        0.11830822630000
C            0.09355826390000       -2.07018425600000       -0.10782162420000
C            0.42813689830000       -0.73775951010000       -0.34587717770000
C            1.85839113230000       -0.44663463580000       -0.51509753800000
C            2.53797180390000        0.48107329420000        0.13363888090000
F            2.06316365790000        1.33901490170000        1.02932833340000
F            3.84770485970000        0.68437236030000       -0.01260082940000
C           -0.56953932090000        0.23978804260000       -0.41309108510000
C           -0.23912882030000        1.66093581970000       -0.75556352990000
H           -4.78842811560000        1.57631836660000        0.62157870670000
H           -4.10233398170000        0.09459928300000        1.44545500470000
H           -2.91638443590000        1.63905830060000       -0.90674502130000
H           -3.23273767330000       -1.74543853560000        0.27852659200000
H           -1.46978682700000       -3.46768703370000        0.30552117130000
H            0.87687818020000       -2.81345165630000       -0.08387935470000
H            2.42632110930000       -1.09639795530000       -1.16471539190000
H            0.74617860260000        1.73798507680000       -1.20719378500000
H           -0.25758575340000        2.28291424090000        0.13876826780000
H           -0.96295713830000        2.06557365840000       -1.45968692530000
$end

$rem
BASIS = 6-31G*
GUI = 2
METHOD = B3LYP
PRINT_ORBITALS false
MOLDEN_FORMAT false
$end
--------------------------------------------------------------
 ----------------------------------------------------------------
             Standard Nuclear Orientation (Angstroms)
    I     Atom           X                Y                Z
 ----------------------------------------------------------------
    1      C      -3.7952781261     1.2984328682     0.5903252358
    2      C      -2.7604871883     1.1730389033    -0.2280862171
    3      C      -1.7960410359     0.0717171846    -0.1705829933
    4      C      -2.2532731955    -1.2088326429     0.1306386135
    5      C      -1.3826986423    -2.2796422259     0.1887405653
    6      C      -0.0355635353    -2.0720026704    -0.0255462011
    7      C       0.4502792777    -0.7938866148    -0.2982092203
    8      C       1.9064340635    -0.6706517573    -0.4513196588
    9      C       2.6771620482     0.1953757698     0.1805866077
   10      F       2.2896816609     1.1295707725     1.0413448891
   11      F       4.0033607465     0.2456456831     0.0510212217
   12      C      -0.4298724958     0.2867364053    -0.4124961818
   13      C       0.0632724699     1.6500732167    -0.7922859398
   14      H      -4.4852309791     2.1207459725     0.5074788322
   15      H      -3.9819367368     0.5987248926     1.3878966283
   16      H      -2.5970464864     1.9238163374    -0.9892627273
   17      H      -3.3091187977    -1.3638795194     0.2928355448
   18      H      -1.7519904313    -3.2712596400     0.4029110142
   19      H       0.6586143135    -2.8972936125     0.0346345834
   20      H       2.4064813775    -1.4006114561    -1.0708773301
   21      H       1.0571486928     1.6015137896    -1.2288512024
   22      H       0.1026252000     2.2986794393     0.0822359352
   23      H      -0.6005296583     2.1104650762    -1.5208839363
 ----------------------------------------------------------------
 Molecular Point Group                 C1    NOp =  1
 Largest Abelian Subgroup              C1    NOp =  1
 Nuclear Repulsion Energy =         752.41058326 hartrees
 There are       47 alpha and       47 beta electrons
 Requested basis set is 6-31G(d)
 There are 72 shells and 215 basis functions

 Total QAlloc Memory Limit   8000 MB
 Mega-Array Size       188 MB
 MEM_STATIC part       192 MB
 A cutoff of  1.0D-08 yielded   1849 shell pairs
 There are     17475 function pairs
 Smallest overlap matrix eigenvalue = 3.31E-04

 Scale SEOQF with 1.000000e-01/1.000000e-01/1.000000e+00

 Standard Electronic Orientation quadrupole field applied
 Nucleus-field energy     =     0.0000000003 hartrees
 Guess from superposition of atomic densities
 Warning:  Energy on first SCF cycle will be non-variational
 SAD guess density has 94.000000 electrons

 -----------------------------------------------------------------------
  General SCF calculation program by
  Eric Jon Sundstrom, Paul Horn, Yuezhi Mao, Dmitri Zuev, Alec White,
  David Stuck, Shaama M.S., Shane Yost, Joonho Lee, David Small,
  Daniel Levine, Susi Lehtola, Hugh Burton, Evgeny Epifanovsky,
  Bang C. Huynh
 -----------------------------------------------------------------------
 Exchange:     0.2000 Hartree-Fock + 0.0800 Slater + 0.7200 B88
 Correlation:  0.1900 VWN1RPA + 0.8100 LYP
 Using SG-1 standard quadrature grid
 A restricted SCF calculation will be
 performed using DIIS
 SCF converges when DIIS error is below 1.0e-05
 ---------------------------------------
  Cycle       Energy         DIIS error
 ---------------------------------------
    1    -627.7000066405      5.41e-02  
    2    -624.5942725131      6.17e-03  
    3    -624.4567671681      7.88e-03  
    4    -624.8092870556      1.51e-03  
    5    -624.8219118553      4.56e-04  
    6    -624.8228116959      2.39e-04  
    7    -624.8231534156      5.15e-05  
    8    -624.8231671778      1.78e-05  
    9    -624.8231692441      5.28e-06  Convergence criterion met
 ---------------------------------------
 SCF time:   CPU 51.97s  wall 59.00s 
 SCF   energy in the final basis set =     -624.8231692441
 Total energy in the final basis set =     -624.8231692441
 
 --------------------------------------------------------------
 
                    Orbital Energies (a.u.)
 --------------------------------------------------------------
 
 Alpha MOs
 -- Occupied --
-24.7386 -24.7322 -10.3537 -10.2003 -10.1993 -10.1970 -10.1922 -10.1890
-10.1863 -10.1846 -10.1836 -10.1795 -10.1771  -1.2811  -1.2209  -0.8719
 -0.8129  -0.7874  -0.7626  -0.7243  -0.6871  -0.6404  -0.6208  -0.5892
 -0.5733  -0.5540  -0.5203  -0.5151  -0.5005  -0.4740  -0.4536  -0.4418
 -0.4393  -0.4325  -0.4304  -0.4141  -0.4082  -0.4056  -0.3891  -0.3743
 -0.3585  -0.3426  -0.3340  -0.2963  -0.2713  -0.2321  -0.2238
 -- Virtual --
 -0.0257  -0.0084   0.0373   0.0547   0.1006   0.1036   0.1249   0.1323
  0.1433   0.1527   0.1605   0.1765   0.1820   0.1920   0.1978   0.2064
  0.2472   0.2516   0.2960   0.3069   0.3138   0.3536   0.3662   0.3854
  0.4004   0.4223   0.4774   0.4922   0.5045   0.5109   0.5274   0.5331
  0.5459   0.5484   0.5595   0.5634   0.5816   0.5911   0.6032   0.6120
  0.6176   0.6278   0.6443   0.6602   0.6614   0.6793   0.6990   0.7067
  0.7352   0.7582   0.7631   0.7887   0.8296   0.8339   0.8404   0.8508
  0.8665   0.8807   0.8915   0.8989   0.9265   0.9321   0.9478   0.9526
  0.9717   0.9805   0.9945   1.0000   1.0252   1.0651   1.1009   1.1196
  1.1277   1.1558   1.1744   1.1938   1.2033   1.2194   1.2379   1.2587
  1.2892   1.3028   1.3150   1.3512   1.3845   1.4076   1.4212   1.4425
  1.4562   1.4760   1.4833   1.4956   1.5282   1.5424   1.5889   1.6118
  1.6803   1.7002   1.7275   1.7678   1.7734   1.7899   1.8191   1.8305
  1.8337   1.8560   1.8690   1.9065   1.9161   1.9349   1.9589   1.9749
  1.9896   1.9901   2.0045   2.0133   2.0292   2.0662   2.0811   2.1233
  2.1433   2.1790   2.1913   2.1978   2.2265   2.2395   2.2588   2.2779
  2.3068   2.3107   2.3244   2.3782   2.4022   2.4250   2.4451   2.5147
  2.5226   2.5559   2.5874   2.6181   2.6659   2.6681   2.6981   2.7371
  2.7699   2.7968   2.8196   2.8650   2.9594   3.0170   3.0390   3.1180
  3.1640   3.2673   3.4677   4.0984   4.1168   4.1233   4.1434   4.1496
  4.2564   4.2680   4.3132   4.4224   4.4873   4.7864   4.8027   5.2393
 --------------------------------------------------------------
 
          Ground-State Mulliken Net Atomic Charges

     Atom                 Charge (a.u.)
  ----------------------------------------
      1 C                    -0.335775
      2 C                    -0.130904
      3 C                     0.095382
      4 C                    -0.177059
      5 C                    -0.132338
      6 C                    -0.168792
      7 C                     0.106609
      8 C                    -0.352473
      9 C                     0.572743
     10 F                    -0.235837
     11 F                    -0.248974
     12 C                     0.080938
     13 C                    -0.533524
     14 H                     0.142103
     15 H                     0.144891
     16 H                     0.133863
     17 H                     0.129628
     18 H                     0.128269
     19 H                     0.126828
     20 H                     0.168521
     21 H                     0.155872
     22 H                     0.174066
     23 H                     0.155960
  ----------------------------------------
  Sum of atomic charges =     0.000000

 -----------------------------------------------------------------
                    Cartesian Multipole Moments
 -----------------------------------------------------------------
    Charge (ESU x 10^10)
                 0.0000
    Dipole Moment (Debye)
         X      -0.6839      Y      -0.4792      Z      -0.4937
       Tot       0.9701
    Quadrupole Moments (Debye-Ang)
        XX     -73.5376     XY      -2.4809     YY     -68.8970
        XZ      -2.5626     YZ      -1.7256     ZZ     -75.0739
    Octopole Moments (Debye-Ang^2)
       XXX      22.4390    XXY       1.1159    XYY      11.6967
       YYY       2.1544    XXZ       7.4928    XYZ       4.3066
       YYZ       1.2694    XZZ      18.5640    YZZ       6.4513
       ZZZ       9.0102
    Hexadecapole Moments (Debye-Ang^3)
      XXXX   -2326.0931   XXXY      -2.7920   XXYY    -489.8782
      XYYY      24.6240   YYYY    -804.5335   XXXZ     -22.3316
      XXYZ      -1.6083   XYYZ       3.2485   YYYZ      -0.3467
      XXZZ    -411.0587   XYZZ       3.8472   YYZZ    -177.6045
      XZZZ      20.4331   YZZZ       7.9995   ZZZZ    -189.5018
 -----------------------------------------------------------------
 Total job time:  61.76s(wall), 52.41s(cpu) 
 Fri Aug 12 12:44:25 2022

        *************************************************************
        *                                                           *
        *  Thank you very much for using Q-Chem.  Have a nice day.  *
        *                                                           *
        *************************************************************


