
Running Job 1 of 1 fragments/B004/conf-1/spe_input.inp
qchem fragments/B004/conf-1/spe_input.inp_323827.0 /gpfs/fs0/scratch/a/aspuru/rhickman/descriptor_computation/qchem323827/ 0
/scinet/niagara/software/commercial/qc52/exe/qcprog.exe_s fragments/B004/conf-1/spe_input.inp_323827.0 /gpfs/fs0/scratch/a/aspuru/rhickman/descriptor_computation/qchem323827/
                  Welcome to Q-Chem
     A Quantum Leap Into The Future Of Chemistry


 Q-Chem 5.2, Q-Chem, Inc., Pleasanton, CA (2019)

 License issued to: SRG Alan Aspuru-Guzik, University of Toronto

 Yihan Shao,  Zhengting Gan,  E. Epifanovsky,  A. T. B. Gilbert,  M. Wormit,  
 J. Kussmann,  A. W. Lange,  A. Behn,  Jia Deng,  Xintian Feng,  D. Ghosh,  
 M. Goldey,  P. R. Horn,  L. D. Jacobson,  I. Kaliman,  T. Kus,  A. Landau,  
 Jie Liu,  E. I. Proynov,  R. M. Richard,  R. P. Steele,  E. J. Sundstrom,  
 H. L. Woodcock III,  P. M. Zimmerman,  D. Zuev,  B. Albrecht,  E. Alguire,  
 S. A. Baeppler,  D. Barton,  Z. Benda,  Y. A. Bernard,  E. J. Berquist,  
 K. B. Bravaya,  H. Burton,  D. Casanova,  Chun-Min Chang,  Yunqing Chen,  
 A. Chien,  K. D. Closser,  M. P. Coons,  S. Coriani,  S. Dasgupta,  
 A. L. Dempwolff,  M. Diedenhofen,  Hainam Do,  R. G. Edgar,  Po-Tung Fang,  
 S. Faraji,  S. Fatehi,  Qingguo Feng,  K. D. Fenk,  J. Fosso-Tande,  
 J. Gayvert,  Qinghui Ge,  A. Ghysels,  G. Gidofalvi,  J. Gomes,  
 J. Gonthier,  A. Gunina,  D. Hait,  M. W. D. Hanson-Heine,  
 P. H. P. Harbach,  A. W. Hauser,  M. F. Herbst,  J. E. Herr,  
 E. G. Hohenstein,  Z. C. Holden,  Kerwin Hui,  B. C. Huynh,  T.-C. Jagau,  
 Hyunjun Ji,  B. Kaduk,  K. Khistyaev,  Jaehoon Kim,  P. Klunzinger,  K. Koh,  
 D. Kosenkov,  L. Koulias,  T. Kowalczyk,  C. M. Krauter,  A. Kunitsa,  
 Ka Un Lao,  A. Laurent,  K. V. Lawler,  Joonho Lee,  D. Lefrancois,  
 S. Lehtola,  D. S. Levine,  Yi-Pei Li,  You-Sheng Lin,  Fenglai Liu,  
 E. Livshits,  A. Luenser,  P. Manohar,  E. Mansoor,  S. F. Manzer,  
 Shan-Ping Mao,  Yuezhi Mao,  N. Mardirossian,  A. V. Marenich,  
 T. Markovich,  L. A. Martinez-Martinez,  S. A. Maurer,  N. J. Mayhall,  
 S. C. McKenzie,  J.-M. Mewes,  P. Morgante,  A. F. Morrison,  
 J. W. Mullinax,  K. Nanda,  T. S. Nguyen-Beck,  R. Olivares-Amaya,  
 J. A. Parkhill,  Zheng Pei,  T. M. Perrine,  F. Plasser,  P. Pokhilko,  
 S. Prager,  A. Prociuk,  E. Ramos,  D. R. Rehn,  F. Rob,  M. Scheurer,  
 M. Schneider,  N. Sergueev,  S. M. Sharada,  S. Sharma,  D. W. Small,  
 T. Stauch,  T. Stein,  Yu-Chuan Su,  A. J. W. Thom,  A. Tkatchenko,  
 T. Tsuchimochi,  N. M. Tubman,  L. Vogt,  M. L. Vidal,  O. Vydrov,  
 M. A. Watson,  J. Wenzel,  M. de Wergifosse,  T. A. Wesolowski,  A. White,  
 J. Witte,  A. Yamada,  Jun Yang,  K. Yao,  S. Yeganeh,  S. R. Yost,  
 Zhi-Qiang You,  A. Zech,  Igor Ying Zhang,  Xing Zhang,  Yan Zhao,  
 Ying Zhu,  B. R. Brooks,  G. K. L. Chan,  C. J. Cramer,  M. S. Gordon,  
 W. J. Hehre,  A. Klamt,  M. W. Schmidt,  C. D. Sherrill,  D. G. Truhlar,  
 A. Aspuru-Guzik,  R. Baer,  A. T. Bell,  N. A. Besley,  Jeng-Da Chai,  
 A. E. DePrince, III,  R. A. DiStasio Jr.,  A. Dreuw,  B. D. Dunietz,  
 T. R. Furlani,  Chao-Ping Hsu,  Yousung Jung,  Jing Kong,  D. S. Lambrecht,  
 WanZhen Liang,  C. Ochsenfeld,  V. A. Rassolov,  L. V. Slipchenko,  
 J. E. Subotnik,  T. Van Voorhis,  J. M. Herbert,  A. I. Krylov,  
 P. M. W. Gill,  M. Head-Gordon

 Contributors to earlier versions of Q-Chem not listed above: 
 R. D. Adamson,  B. Austin,  J. Baker,  G. J. O. Beran,  K. Brandhorst,  
 S. T. Brown,  E. F. C. Byrd,  A. K. Chakraborty,  C.-L. Cheng,  
 Siu Hung Chien,  D. M. Chipman,  D. L. Crittenden,  H. Dachsel,  
 R. J. Doerksen,  A. D. Dutoi,  L. Fusti-Molnar,  W. A. Goddard III,  
 A. Golubeva-Zadorozhnaya,  S. R. Gwaltney,  G. Hawkins,  A. Heyden,  
 S. Hirata,  G. Kedziora,  F. J. Keil,  C. Kelley,  Jihan Kim,  R. A. King,  
 R. Z. Khaliullin,  P. P. Korambath,  W. Kurlancheek,  A. M. Lee,  M. S. Lee,  
 S. V. Levchenko,  Ching Yeh Lin,  D. Liotard,  R. C. Lochan,  I. Lotan,  
 P. E. Maslen,  N. Nair,  D. P. O'Neill,  D. Neuhauser,  E. Neuscamman,  
 C. M. Oana,  R. Olson,  B. Peters,  R. Peverati,  P. A. Pieniazek,  
 Y. M. Rhee,  J. Ritchie,  M. A. Rohrdanz,  E. Rosta,  N. J. Russ,  
 H. F. Schaefer III,  N. E. Schultz,  N. Shenvi,  A. C. Simmonett,  A. Sodt,  
 D. Stuck,  K. S. Thanthiriwatte,  V. Vanovschi,  Tao Wang,  A. Warshel,  
 C. F. Williams,  Q. Wu,  X. Xu,  W. Zhang

 Please cite Q-Chem as follows:
 Y. Shao et al., Mol. Phys. 113, 184-215 (2015)
 DOI: 10.1080/00268976.2014.952696

 Q-Chem 5.2.1 for Intel X86 EM64T Linux

 Parts of Q-Chem use Armadillo 8.300.2 (Tropical Shenanigans).
 http://arma.sourceforge.net/

 Q-Chem begins on Tue Feb  8 14:35:41 2022  

Host: 
0

     Scratch files written to /gpfs/fs0/scratch/a/aspuru/rhickman/descriptor_computation/qchem323827//
 Jul1719 |scratch|qcdevops|jenkins|workspace|build_RNUM -1
Processing $rem in /scinet/niagara/software/commercial/qc52/config/preferences:
	 MEM_TOTAL  4000 
NAlpha2: 86
NElect   86
Mult     1

Checking the input file for inconsistencies... 	...done.

--------------------------------------------------------------
User input:
--------------------------------------------------------------
$molecule
0 1
C        -1.12656762960000   -2.64262817720000    0.51067159730000
C        -1.84634636820000   -1.71074885190000   -0.10001832580000
C        -1.54029670830000   -0.28171545100000   -0.14005949510000
N        -2.61156111600000    0.50519577080000   -0.10031082140000
C        -2.46127590300000    1.81225204590000   -0.05265587450000
C        -1.21856183920000    2.43077903600000   -0.04620185550000
C        -0.09507473760000    1.63196993650000   -0.14784402570000
C        -0.23303464910000    0.24441330490000   -0.20694336970000
C         0.91581446630000   -0.62689777930000   -0.41271431470000
C         2.15427730190000   -0.39438206780000   -0.00795879670000
F         2.58649606450000    0.63817463380000    0.70836560130000
F         3.17415213490000   -1.21695819450000   -0.24482650640000
H        -1.44294873680000   -3.67175930160000    0.52678780650000
H        -0.21887453080000   -2.41594209560000    1.04487078090000
H        -2.79427621850000   -1.96354766000000   -0.55515939170000
H        -3.37776646680000    2.38659727420000   -0.02103995570000
H        -1.13340257520000    3.50442435890000    0.00843430050000
H         0.88502834840000    2.08054450380000   -0.20344831280000
H         0.74918021470000   -1.54921024100000   -0.94941146060000
$end

$rem
BASIS = 6-31G*
GUI = 2
METHOD = B3LYP
PRINT_ORBITALS false
MOLDEN_FORMAT false
--------------------------------------------------------------
 ----------------------------------------------------------------
             Standard Nuclear Orientation (Angstroms)
    I     Atom           X                Y                Z
 ----------------------------------------------------------------
    1      C      -0.2692079722    -2.8285512507     0.4977532073
    2      C      -1.2350526804    -2.1260742503    -0.0793886775
    3      C      -1.3357229786    -0.6677645802    -0.1039762267
    4      N      -2.5806893668    -0.2071662726    -0.0244491838
    5      C      -2.7949162924     1.0901892803     0.0405749596
    6      C      -1.7709792737     2.0273587848     0.0256807413
    7      C      -0.4743338994     1.5702596112    -0.1172230530
    8      C      -0.2264202295     0.1990260355    -0.1953022977
    9      C       1.1115726423    -0.3198690476    -0.4441033124
   10      C       2.2491886452     0.2416663867    -0.0670243199
   11      F       2.4006878893     1.3471622980     0.6548023996
   12      F       3.4489346197    -0.2656849453    -0.3428624860
   13      H      -0.2892980368    -3.9051240564     0.5051688492
   14      H       0.5558992441    -2.3649524114     1.0124728464
   15      H      -2.0893591993    -2.6265499939    -0.5144932973
   16      H      -3.8328482311     1.3892250545     0.1046207038
   17      H      -1.9832959293     3.0823432711     0.0955438980
   18      H       0.3422895682     2.2721875665    -0.1902730107
   19      H       1.1900678035    -1.2477075146    -0.9913010519
 ----------------------------------------------------------------
 Molecular Point Group                 C1    NOp =  1
 Largest Abelian Subgroup              C1    NOp =  1
 Nuclear Repulsion Energy =         654.17937853 hartrees
 There are       43 alpha and       43 beta electrons
 Requested basis set is 6-31G(d)
 There are 62 shells and 194 basis functions

 Total QAlloc Memory Limit   4000 MB
 Mega-Array Size       188 MB
 MEM_STATIC part       192 MB
 A cutoff of  1.0D-08 yielded   1421 shell pairs
 There are     14740 function pairs
 Smallest overlap matrix eigenvalue = 6.57E-04

 Scale SEOQF with 1.000000e-01/1.000000e-01/1.000000e+00

 Standard Electronic Orientation quadrupole field applied
 Nucleus-field energy     =     0.0000000148 hartrees
 Guess from superposition of atomic densities
 Warning:  Energy on first SCF cycle will be non-variational
 SAD guess density has 86.000000 electrons

 -----------------------------------------------------------------------
  General SCF calculation program by
  Eric Jon Sundstrom, Paul Horn, Yuezhi Mao, Dmitri Zuev, Alec White,
  David Stuck, Shaama M.S., Shane Yost, Joonho Lee, David Small,
  Daniel Levine, Susi Lehtola, Hugh Burton, Evgeny Epifanovsky,
  Bang C. Huynh
 -----------------------------------------------------------------------
 Exchange:     0.2000 Hartree-Fock + 0.0800 Slater + 0.7200 B88
 Correlation:  0.1900 VWN1RPA + 0.8100 LYP
 Using SG-1 standard quadrature grid
 A restricted SCF calculation will be
 performed using DIIS
 SCF converges when DIIS error is below 1.0e-05
 ---------------------------------------
  Cycle       Energy         DIIS error
 ---------------------------------------
    1    -604.2677755278      5.75e-02  
    2    -601.3610147960      6.24e-03  
    3    -601.2094705947      8.49e-03  
    4    -601.5370336818      1.48e-03  
    5    -601.5463655532      5.37e-04  
    6    -601.5473887082      2.65e-04  
    7    -601.5477345243      5.60e-05  
    8    -601.5477481445      1.98e-05  
    9    -601.5477498131      4.89e-06  Convergence criterion met
 ---------------------------------------
 SCF time:   CPU 23.29s  wall 23.00s 
 SCF   energy in the final basis set =     -601.5477498131
 Total energy in the final basis set =     -601.5477498131
 
 --------------------------------------------------------------
 
                    Orbital Energies (a.u.)
 --------------------------------------------------------------
 
 Alpha MOs
 -- Occupied --
-24.7459 -24.7378 -14.3262 -10.3600 -10.2307 -10.2206 -10.2157 -10.2073
-10.2060 -10.1985 -10.1934 -10.1883  -1.2878  -1.2275  -0.9531  -0.8385
 -0.8078  -0.7769  -0.7396  -0.6626  -0.6403  -0.6223  -0.5844  -0.5694
 -0.5334  -0.5223  -0.5052  -0.5007  -0.4663  -0.4529  -0.4446  -0.4380
 -0.4290  -0.4218  -0.4046  -0.4042  -0.3823  -0.3579  -0.3140  -0.3027
 -0.2652  -0.2542  -0.2255
 -- Virtual --
 -0.0409  -0.0321   0.0361   0.0515   0.1021   0.1136   0.1246   0.1374
  0.1562   0.1607   0.1720   0.1788   0.2008   0.2056   0.2639   0.2820
  0.3076   0.3242   0.3333   0.3608   0.3970   0.4244   0.4388   0.4710
  0.4973   0.5110   0.5221   0.5271   0.5513   0.5605   0.5724   0.5789
  0.5837   0.5949   0.6020   0.6136   0.6244   0.6477   0.6590   0.6653
  0.6816   0.6970   0.7028   0.7613   0.7650   0.8138   0.8308   0.8371
  0.8536   0.8650   0.8790   0.8825   0.8954   0.9246   0.9413   0.9579
  0.9625   1.0059   1.0268   1.0451   1.0584   1.0878   1.1044   1.1305
  1.1351   1.1854   1.1912   1.1957   1.2139   1.2338   1.2763   1.3056
  1.3395   1.3595   1.3924   1.4164   1.4262   1.4410   1.4639   1.4817
  1.5006   1.5159   1.5347   1.5563   1.5919   1.6649   1.6733   1.7157
  1.7228   1.7646   1.7885   1.7990   1.8327   1.8390   1.8455   1.8613
  1.8755   1.9017   1.9607   1.9679   1.9777   2.0029   2.0049   2.0200
  2.0426   2.0665   2.1214   2.1601   2.1615   2.1852   2.2044   2.2299
  2.2414   2.2826   2.3145   2.3258   2.3438   2.3791   2.4002   2.4758
  2.5124   2.5349   2.5778   2.6047   2.6388   2.6525   2.6972   2.7008
  2.7277   2.7587   2.8275   2.8697   2.8887   2.9668   3.0173   3.1091
  3.1773   3.3020   3.4601   4.0619   4.0966   4.1070   4.1471   4.1736
  4.2376   4.2616   4.3882   4.4567   4.6839   4.7842   5.2285
 --------------------------------------------------------------
 
          Ground-State Mulliken Net Atomic Charges

     Atom                 Charge (a.u.)
  ----------------------------------------
      1 C                    -0.343329
      2 C                    -0.093110
      3 C                     0.217845
      4 N                    -0.474219
      5 C                     0.042784
      6 C                    -0.147253
      7 C                    -0.146763
      8 C                     0.134535
      9 C                    -0.328942
     10 C                     0.552587
     11 F                    -0.238070
     12 F                    -0.246151
     13 H                     0.150472
     14 H                     0.158905
     15 H                     0.151337
     16 H                     0.140851
     17 H                     0.138779
     18 H                     0.148316
     19 H                     0.181425
  ----------------------------------------
  Sum of atomic charges =     0.000000

 -----------------------------------------------------------------
                    Cartesian Multipole Moments
 -----------------------------------------------------------------
    Charge (ESU x 10^10)
                 0.0000
    Dipole Moment (Debye)
         X       0.4579      Y       0.5954      Z      -0.3085
       Tot       0.8120
    Quadrupole Moments (Debye-Ang)
        XX     -72.0184     XY      -4.2309     YY     -59.1771
        XZ       0.3397     YZ       0.0805     ZZ     -68.1172
    Octopole Moments (Debye-Ang^2)
       XXX      36.3258    XXY      15.7879    XYY       6.0550
       YYY       5.8682    XXZ       0.5489    XYZ      -4.3088
       YYZ       0.4486    XZZ      18.2007    YZZ       1.4173
       ZZZ       2.8096
    Hexadecapole Moments (Debye-Ang^3)
      XXXX   -1581.6333   XXXY     -29.9567   XXYY    -393.0402
      XYYY       9.8363   YYYY    -857.7487   XXXZ       5.7371
      XXYZ       6.2798   XYYZ       3.7041   YYYZ       5.7059
      XXZZ    -276.5450   XYZZ       6.1446   YYZZ    -185.1939
      XZZZ       5.3219   YZZZ      11.1961   ZZZZ    -107.3706
 -----------------------------------------------------------------
Archival summary:
1\1\nia2015.scinet.local\SP\ProcedureUnspecified\6-31G*\2197\rhickman\TueFeb814:36:042022TueFeb814:36:042022\0\\#,ProcedureUnspecified,6-31G*,\\0,1\F\C,1,1.32895\C,2,1.32351,1,127.277\H,3,1.08003,2,116.511,1,-177.187,0\F,2,1.3315,1,109.073,3,-178.361,0\C,3,1.4565,2,126.142,1,3.10951,0\C,6,1.39565,3,121.518,2,31.2676,0\H,7,1.07931,6,120.052,3,-3.21725,0\C,7,1.38226,6,119.823,3,175.43,0\H,9,1.0784,7,120.99,6,179.524,0\C,9,1.38815,7,118.021,6,-2.16915,0\H,11,1.08205,9,121.44,7,-177.205,0\N,11,1.31653,9,123.006,7,2.61977,0\C,13,1.32982,11,119.776,9,0.243225,0\C,14,1.46199,13,114.139,11,176.101,0\H,15,1.0815,14,113.606,13,30.7083,0\C,15,1.32643,14,125.854,13,-144.157,0\H,17,1.07679,15,121.259,14,177.486,0\H,17,1.07734,15,122.524,14,-0.302776,0\\\@

 Total job time:  23.53s(wall), 23.44s(cpu) 
 Tue Feb  8 14:36:04 2022

        *************************************************************
        *                                                           *
        *  Thank you very much for using Q-Chem.  Have a nice day.  *
        *                                                           *
        *************************************************************


