24
 energy: -40.181597715601 gnorm: 0.000060497101 xtb: 6.4.1 (23d549d)
C        -5.91018550260000    0.02036882860000    0.02114817720000
C        -4.82607018320000   -0.74741220710000   -0.00082751030000
C        -3.44127760870000   -0.30034660160000   -0.00259666760000
C        -3.06980576340000    1.04635127600000    0.00660843740000
C        -1.74299294800000    1.41276200480000    0.00344203850000
C        -0.72001775450000    0.45678518180000   -0.00785275780000
C         0.65499092340000    0.90394184320000   -0.01052553460000
C         1.75388868140000    0.13123010470000   -0.00279088470000
C         3.08290724620000    0.67735236680000   -0.00664969840000
C         4.18341637410000   -0.06684524110000    0.00352316730000
F         4.22238990170000   -1.39595844530000    0.01889631280000
F         5.42309165880000    0.41531455010000   -0.00016035030000
C        -1.09278309730000   -0.89143184930000   -0.01715485160000
C        -2.42034625740000   -1.25581096460000   -0.01499785130000
H        -6.89774764430000   -0.40789512780000    0.02043016230000
H        -5.86491091180000    1.09564641270000    0.04118199980000
H        -4.94932703990000   -1.82378864790000   -0.01885681610000
H        -3.82806771400000    1.81388737680000    0.01522741440000
H        -1.48106106180000    2.46172211110000    0.01022348580000
H         0.78701786890000    1.97957887540000   -0.01819798780000
H         1.68391039230000   -0.94619932990000    0.00768822380000
H         3.20953387880000    1.74892631740000   -0.01866588250000
H        -0.33626182260000   -1.66058562490000   -0.02758850680000
H        -2.68262078540000   -2.30467793600000   -0.02290222290000
