
Running Job 1 of 1 tidas/B052/conf-3/spe_input.inp
qchem tidas/B052/conf-3/spe_input.inp_239659.0 /home/a/aspuru/seifridm/acdc_laser/descriptor_computation/qchem239659/ 0
/gpfs/fs1/scinet/niagara/software/commercial/qc54/exe/qcprog.exe_s tidas/B052/conf-3/spe_input.inp_239659.0 /home/a/aspuru/seifridm/acdc_laser/descriptor_computation/qchem239659/
                  Welcome to Q-Chem
     A Quantum Leap Into The Future Of Chemistry


 Q-Chem 5.4, Q-Chem, Inc., Pleasanton, CA (2021)

 License issued to: SRG Alan Aspuru-Guzik, University of Toronto

 E. Epifanovsky,  A. T. B. Gilbert,  Xintian Feng,  Joonho Lee,  Yuezhi Mao,  
 N. Mardirossian,  P. Pokhilko,  A. White,  M. Wormit,  M. P. Coons,  
 A. L. Dempwolff,  Zhengting Gan,  D. Hait,  P. R. Horn,  L. D. Jacobson,  
 I. Kaliman,  J. Kussmann,  A. W. Lange,  Ka Un Lao,  D. S. Levine,  Jie Liu,  
 S. C. McKenzie,  A. F. Morrison,  K. Nanda,  F. Plasser,  D. R. Rehn,  
 M. L. Vidal,  Zhi-Qiang You,  Ying Zhu,  B. Alam,  B. Albrecht,  
 A. Aldossary,  E. Alguire,  J. H. Andersen,  D. Barton,  K. Begam,  A. Behn,  
 Y. A. Bernard,  E. J. Berquist,  H. Burton,  A. Carreras,  K. Carter-Fenk,  
 Romit Chakraborty,  A. D. Chien,  K. D. Closser,  V. Cofer-Shabica,  
 S. Dasgupta,  Jia Deng,  M. de Wergifosse,  M. Diedenhofen,  Hainam Do,  
 S. Ehlert,  Po-Tung Fang,  S. Fatehi,  Qingguo Feng,  T. Friedhoff,  
 J. Gayvert,  Qinghui Ge,  G. Gidofalvi,  M. Goldey,  J. Gomes,  
 C. Gonzalez-Espinoza,  S. Gulania,  A. Gunina,  M. W. D. Hanson-Heine,  
 P. H. P. Harbach,  A. W. Hauser,  M. F. Herbst,  M. Hernandez Vera,  
 M. Hodecker,  Z. C. Holden,  S. Houck,  Xunkun Huang,  Kerwin Hui,  
 B. C. Huynh,  M. Ivanov,  Hyunjun Ji,  Hanjie Jiang,  B. Kaduk,  S. Kaehler,  
 K. Khistyaev,  Jaehoon Kim,  P. Klunzinger,  Z. Koczor-Benda,  
 Joong Hoon Koh,  D. Kosenkov,  L. Koulias,  T. Kowalczyk,  C. M. Krauter,  
 K. Kue,  A. Kunitsa,  T. Kus,  A. Landau,  K. V. Lawler,  D. Lefrancois,  
 S. Lehtola,  Rain Li,  Yi-Pei Li,  Jiashu Liang,  M. Liebenthal,  
 Hung-Hsuan Lin,  You-Sheng Lin,  Fenglai Liu,  Kuan-Yu Liu,  
 M. Loipersberger,  A. Luenser,  A. Manjanath,  P. Manohar,  E. Mansoor,  
 S. F. Manzer,  Shan-Ping Mao,  A. V. Marenich,  T. Markovich,  S. Mason,  
 S. A. Maurer,  P. F. McLaughlin,  M. F. S. J. Menger,  J.-M. Mewes,  
 S. A. Mewes,  P. Morgante,  J. W. Mullinax,  K. J. Oosterbaan,  G. Paran,  
 Alexander C. Paul,  Suranjan K. Paul,  F. Pavosevic,  Zheng Pei,  S. Prager,  
 E. I. Proynov,  E. Ramos,  B. Rana,  A. E. Rask,  A. Rettig,  R. M. Richard,  
 F. Rob,  E. Rossomme,  T. Scheele,  M. Scheurer,  M. Schneider,  
 N. Sergueev,  S. M. Sharada,  W. Skomorowski,  D. W. Small,  C. J. Stein,  
 Yu-Chuan Su,  E. J. Sundstrom,  Zhen Tao,  J. Thirman,  T. Tsuchimochi,  
 N. M. Tubman,  S. P. Veccham,  O. Vydrov,  J. Wenzel,  J. Witte,  A. Yamada,  
 Kun Yao,  S. Yeganeh,  S. R. Yost,  A. Zech,  Igor Ying Zhang,  Xing Zhang,  
 Yu Zhang,  D. Zuev,  A. Aspuru-Guzik,  A. T. Bell,  N. A. Besley,  
 K. B. Bravaya,  B. R. Brooks,  D. Casanova,  Jeng-Da Chai,  S. Coriani,  
 C. J. Cramer,  A. E. DePrince, III,  R. A. DiStasio Jr.,  A. Dreuw,  
 B. D. Dunietz,  T. R. Furlani,  W. A. Goddard III,  S. Grimme,  
 S. Hammes-Schiffer,  T. Head-Gordon,  W. J. Hehre,  Chao-Ping Hsu,  
 T.-C. Jagau,  Yousung Jung,  A. Klamt,  Jing Kong,  D. S. Lambrecht,  
 WanZhen Liang,  N. J. Mayhall,  C. W. McCurdy,  J. B. Neaton,  T. Neudecker,  
 C. Ochsenfeld,  J. A. Parkhill,  R. Peverati,  V. A. Rassolov,  Yihan Shao,  
 L. V. Slipchenko,  R. P. Steele,  J. E. Subotnik,  A. J. W. Thom,  
 A. Tkatchenko,  D. G. Truhlar,  T. Van Voorhis,  T. A. Wesolowski,  
 K. B. Whaley,  H. L. Woodcock III,  P. M. Zimmerman,  S. Faraji,  
 P. M. W. Gill,  M. Head-Gordon,  J. M. Herbert,  A. I. Krylov

 Additional authors since Version 5.4.0: 
 Chandrima Chakravarty,  L. Cunha,  R. Kang,  Yongbin Kim,  S. Kotaru,  
 Shaozhi Li,  Xiangyuan Li,  F. Matz,  A. Molle,  V. Parravicini,  
 Haisheng Ren,  Hengyuan Shen,  Yingli Su,  Hung-Yi Tsai,  C. Utku,  
 Fang Wang,  Jeff Yang,  F. Zeller

 Contributors to earlier versions of Q-Chem not listed above: 
 R. D. Adamson,  B. Austin,  R. Baer,  J. Baker,  G. J. O. Beran,  
 K. Brandhorst,  S. T. Brown,  E. F. C. Byrd,  Arup K. Chakraborty,  
 G. K. L. Chan,  Chun-Min Chang,  Yunqing Chen,  C.-L. Cheng,  
 Siu Hung Chien,  D. M. Chipman,  D. L. Crittenden,  H. Dachsel,  
 R. J. Doerksen,  A. D. Dutoi,  R. G. Edgar,  J. Fosso-Tande,  
 L. Fusti-Molnar,  D. Ghosh,  A. Ghysels,  A. Golubeva-Zadorozhnaya,  
 J. Gonthier,  M. S. Gordon,  S. R. Gwaltney,  G. Hawkins,  J. E. Herr,  
 A. Heyden,  S. Hirata,  E. G. Hohenstein,  G. Kedziora,  F. J. Keil,  
 C. Kelley,  Jihan Kim,  R. A. King,  R. Z. Khaliullin,  P. P. Korambath,  
 W. Kurlancheek,  A. Laurent,  A. M. Lee,  M. S. Lee,  S. V. Levchenko,  
 Ching Yeh Lin,  D. Liotard,  E. Livshits,  R. C. Lochan,  I. Lotan,  
 L. A. Martinez-Martinez,  P. E. Maslen,  N. Nair,  D. P. O'Neill,  
 D. Neuhauser,  E. Neuscamman,  C. M. Oana,  R. Olivares-Amaya,  R. Olson,  
 T. M. Perrine,  B. Peters,  P. A. Pieniazek,  A. Prociuk,  Y. M. Rhee,  
 J. Ritchie,  M. A. Rohrdanz,  E. Rosta,  N. J. Russ,  H. F. Schaefer III,  
 M. W. Schmidt,  N. E. Schultz,  S. Sharma,  N. Shenvi,  C. D. Sherrill,  
 A. C. Simmonett,  A. Sodt,  T. Stein,  D. Stuck,  K. S. Thanthiriwatte,  
 V. Vanovschi,  L. Vogt,  Tao Wang,  A. Warshel,  M. A. Watson,  
 C. F. Williams,  Q. Wu,  X. Xu,  Jun Yang,  W. Zhang,  Yan Zhao

   Please cite Q-Chem as follows:
  "Software for the frontiers of quantum chemistry:
   An overview of developments in the Q-Chem 5 package"
   J. Chem. Phys. 155, 084801 (2021)
   https://doi.org/10.1063/5.0055522 (open access)

 Q-Chem 5.4.2 for Intel X86 EM64T Linux

 Parts of Q-Chem use Armadillo 9.900.5 (Nocturnal Misbehaviour).
 http://arma.sourceforge.net/

 Q-Chem begins on Fri Aug 12 12:43:22 2022  

 Host: 
0

     Scratch files written to /home/a/aspuru/seifridm/acdc_laser/descriptor_computation/qchem239659//
 Dec1321 |scratch|qcdevops|jenkins|workspace|build_RNUM 6959   
 Processing $rem in /gpfs/fs1/scinet/niagara/software/commercial/qc54/config/preferences:
 Processing $rem in /home/a/aspuru/seifridm/.qchemrc:

 Checking the input file for inconsistencies... 	...done.

--------------------------------------------------------------
User input:
--------------------------------------------------------------
$molecule
0 1
C            2.09797717800000       -3.77071865640000       -0.70521578350000
C            1.12209530530000       -3.24944655550000        0.02415979620000
C            0.71356548040000       -1.84143131760000        0.00273751030000
C           -0.62743625210000       -1.56114757930000       -0.09908929870000
C           -1.12492188900000       -0.24727458480000       -0.20973717380000
C           -2.56620187080000       -0.04768044100000       -0.32617696190000
C           -3.26013246640000        0.95647499890000        0.18593973320000
F           -2.81163017530000        1.94605994220000        0.93827213610000
F           -4.57887547730000        1.07354960200000        0.04636438580000
C           -0.20879701760000        0.77978083900000       -0.23921902420000
F           -0.62508492240000        2.04487887980000       -0.45031318690000
C            1.17671334390000        0.56316639900000       -0.08975499310000
C            2.09010269650000        1.63838484260000       -0.07382111080000
C            3.42329920660000        1.41148053370000        0.11978277680000
C            3.88946777520000        0.10580218020000        0.32683900850000
C            3.02598878840000       -0.95550321920000        0.29930619640000
C            1.64955012580000       -0.76854461240000        0.06041660130000
H            2.32487336380000       -4.82284144170000       -0.67261356370000
H            2.68857162060000       -3.17363110330000       -1.37987820610000
H            0.51279484180000       -3.89452659040000        0.64537751770000
H           -1.33845960910000       -2.37442158120000       -0.11542727680000
H           -3.12799670500000       -0.80371233090000       -0.85364447470000
H            1.71043555620000        2.64053527500000       -0.20332728420000
H            4.11995288260000        2.23604913170000        0.13380085690000
H            4.94006022930000       -0.05824314700000        0.51593889110000
H            3.39224738530000       -1.95323398120000        0.48386262790000
$end

$rem
BASIS = 6-31G*
GUI = 2
METHOD = B3LYP
PRINT_ORBITALS false
MOLDEN_FORMAT false
$end
--------------------------------------------------------------
 ----------------------------------------------------------------
             Standard Nuclear Orientation (Angstroms)
    I     Atom           X                Y                Z
 ----------------------------------------------------------------
    1      C      -3.2226160858    -2.7617303149     0.4109186525
    2      C      -2.1057091101    -2.5776687035    -0.2780653094
    3      C      -1.2160437150    -1.4194993561    -0.1476747813
    4      C       0.1323839913    -1.6531536034    -0.0278343330
    5      C       1.0685672336    -0.6212989149     0.1839060637
    6      C       2.4808632673    -0.9673680473     0.3117344690
    7      C       3.5041483354    -0.2484943489    -0.1221314131
    8      F       3.4637824109     0.8890477977    -0.7935516736
    9      F       4.7717956082    -0.6284728882     0.0226358842
   10      C       0.5857617899     0.6629561675     0.2960871223
   11      F       1.4260291155     1.6715407331     0.6043685093
   12      C      -0.7798687346     0.9754209766     0.1338549186
   13      C      -1.2415205296     2.3067785016     0.2045193377
   14      C      -2.5609825754     2.5939658387    -0.0026624865
   15      C      -3.4625215560     1.5654825099    -0.3099585800
   16      C      -3.0426450735     0.2642996130    -0.3678375514
   17      C      -1.6985145760    -0.0790273492    -0.1187493058
   18      H      -3.8139453478    -3.6543658654     0.2967318886
   19      H      -3.5743646245    -2.0426399383     1.1317977838
   20      H      -1.7552796567    -3.3520748538    -0.9494676301
   21      H       0.5002379210    -2.6677942261    -0.0770648015
   22      H       2.7171401270    -1.9124466685     0.7769433217
   23      H      -0.5284209711     3.0904120471     0.4109944247
   24      H      -2.9114186932     3.6137139619     0.0497256438
   25      H      -4.4960035970     1.8082038460    -0.5084916093
   26      H      -3.7402253377    -0.5160269012    -0.6288843206
 ----------------------------------------------------------------
 Molecular Point Group                 C1    NOp =  1
 Largest Abelian Subgroup              C1    NOp =  1
 Nuclear Repulsion Energy =        1132.41819196 hartrees
 There are       60 alpha and       60 beta electrons
 Requested basis set is 6-31G(d)
 There are 86 shells and 273 basis functions

 Total QAlloc Memory Limit   8000 MB
 Mega-Array Size       188 MB
 MEM_STATIC part       192 MB
 A cutoff of  1.0D-08 yielded   2252 shell pairs
 There are     24687 function pairs
 Smallest overlap matrix eigenvalue = 2.31E-04

 Scale SEOQF with 1.000000e-01/1.000000e-01/1.000000e+00

 Standard Electronic Orientation quadrupole field applied
 Nucleus-field energy     =     0.0000000336 hartrees
 Guess from superposition of atomic densities
 Warning:  Energy on first SCF cycle will be non-variational
 SAD guess density has 120.000000 electrons

 -----------------------------------------------------------------------
  General SCF calculation program by
  Eric Jon Sundstrom, Paul Horn, Yuezhi Mao, Dmitri Zuev, Alec White,
  David Stuck, Shaama M.S., Shane Yost, Joonho Lee, David Small,
  Daniel Levine, Susi Lehtola, Hugh Burton, Evgeny Epifanovsky,
  Bang C. Huynh
 -----------------------------------------------------------------------
 Exchange:     0.2000 Hartree-Fock + 0.0800 Slater + 0.7200 B88
 Correlation:  0.1900 VWN1RPA + 0.8100 LYP
 Using SG-1 standard quadrature grid
 A restricted SCF calculation will be
 performed using DIIS
 SCF converges when DIIS error is below 1.0e-05
 ---------------------------------------
  Cycle       Energy         DIIS error
 ---------------------------------------
    1    -842.4183396133      4.85e-02  
    2    -838.1439466602      5.03e-03  
    3    -837.9785970083      6.57e-03  
    4    -838.3656161750      1.34e-03  
    5    -838.3816201786      4.54e-04  
    6    -838.3831769830      2.22e-04  
    7    -838.3836708662      4.31e-05  
    8    -838.3836867247      2.00e-05  
    9    -838.3836907362      4.66e-06  Convergence criterion met
 ---------------------------------------
 SCF time:   CPU 86.75s  wall 95.00s 
 SCF   energy in the final basis set =     -838.3836907362
 Total energy in the final basis set =     -838.3836907362
 
 --------------------------------------------------------------
 
                    Orbital Energies (a.u.)
 --------------------------------------------------------------
 
 Alpha MOs
 -- Occupied --
-24.7383 -24.7334 -24.7115 -10.3573 -10.2728 -10.2114 -10.2046 -10.2042
-10.2035 -10.2016 -10.1972 -10.1965 -10.1920 -10.1914 -10.1909 -10.1891
-10.1852  -1.2835  -1.2250  -1.2206  -0.8897  -0.8447  -0.8160  -0.7881
 -0.7558  -0.7465  -0.7198  -0.6560  -0.6328  -0.6219  -0.6103  -0.5760
 -0.5667  -0.5449  -0.5423  -0.5219  -0.5150  -0.4837  -0.4803  -0.4680
 -0.4644  -0.4517  -0.4395  -0.4355  -0.4343  -0.4297  -0.4159  -0.4130
 -0.4021  -0.3881  -0.3831  -0.3718  -0.3448  -0.3405  -0.3364  -0.3030
 -0.2743  -0.2670  -0.2363  -0.2063
 -- Virtual --
 -0.0476  -0.0231  -0.0004   0.0306   0.0605   0.0943   0.1029   0.1061
  0.1234   0.1317   0.1487   0.1514   0.1631   0.1758   0.1869   0.1883
  0.1952   0.2026   0.2230   0.2673   0.2728   0.2954   0.3142   0.3207
  0.3340   0.3464   0.3661   0.3707   0.4146   0.4177   0.4562   0.4763
  0.4920   0.4963   0.5097   0.5127   0.5235   0.5418   0.5449   0.5519
  0.5590   0.5621   0.5681   0.5773   0.5790   0.5916   0.5972   0.6072
  0.6102   0.6161   0.6195   0.6277   0.6400   0.6520   0.6692   0.6770
  0.6904   0.7082   0.7144   0.7273   0.7511   0.7845   0.8231   0.8267
  0.8342   0.8349   0.8440   0.8507   0.8602   0.8676   0.8835   0.8977
  0.9185   0.9258   0.9322   0.9386   0.9638   0.9704   0.9891   1.0041
  1.0296   1.0401   1.0530   1.0783   1.1030   1.1140   1.1270   1.1453
  1.1647   1.1767   1.1847   1.2038   1.2196   1.2230   1.2439   1.2450
  1.2635   1.2768   1.3057   1.3293   1.3537   1.3720   1.3899   1.4032
  1.4210   1.4223   1.4469   1.4553   1.4624   1.4734   1.4878   1.4956
  1.5027   1.5224   1.5460   1.5623   1.5898   1.6087   1.6628   1.6790
  1.7107   1.7310   1.7522   1.7671   1.7795   1.7856   1.7903   1.8099
  1.8253   1.8354   1.8443   1.8583   1.8657   1.8900   1.9007   1.9219
  1.9303   1.9413   1.9510   1.9739   1.9853   2.0033   2.0044   2.0104
  2.0240   2.0361   2.0734   2.0892   2.1151   2.1264   2.1404   2.1647
  2.1776   2.1921   2.2059   2.2313   2.2402   2.2600   2.2794   2.2882
  2.3088   2.3158   2.3605   2.3637   2.3761   2.3981   2.4281   2.4374
  2.5039   2.5312   2.5341   2.5447   2.6094   2.6295   2.6372   2.6530
  2.6826   2.6900   2.7138   2.7533   2.7731   2.7852   2.7993   2.8410
  2.8572   2.9147   2.9324   2.9909   3.0210   3.0768   3.1070   3.1394
  3.1749   3.3132   3.4206   3.5302   4.0816   4.0936   4.0978   4.1133
  4.1191   4.1470   4.1696   4.2474   4.2743   4.3274   4.3921   4.4974
  4.5791   4.7271   4.8400   5.2616   5.7325
 --------------------------------------------------------------
 
          Ground-State Mulliken Net Atomic Charges

     Atom                 Charge (a.u.)
  ----------------------------------------
      1 C                    -0.334100
      2 C                    -0.143217
      3 C                     0.104539
      4 C                    -0.262133
      5 C                     0.117033
      6 C                    -0.318756
      7 C                     0.567812
      8 F                    -0.228196
      9 F                    -0.247401
     10 C                     0.233900
     11 F                    -0.284080
     12 C                     0.058699
     13 C                    -0.182757
     14 C                    -0.131787
     15 C                    -0.132655
     16 C                    -0.203498
     17 C                     0.090303
     18 H                     0.145502
     19 H                     0.155983
     20 H                     0.140079
     21 H                     0.132088
     22 H                     0.168424
     23 H                     0.145618
     24 H                     0.132984
     25 H                     0.130847
     26 H                     0.144767
  ----------------------------------------
  Sum of atomic charges =     0.000000

 -----------------------------------------------------------------
                    Cartesian Multipole Moments
 -----------------------------------------------------------------
    Charge (ESU x 10^10)
                 0.0000
    Dipole Moment (Debye)
         X      -1.8221      Y      -1.2139      Z       0.0126
       Tot       2.1895
    Quadrupole Moments (Debye-Ang)
        XX     -91.4196     XY      -2.9693     YY     -85.5663
        XZ       0.9366     YZ       0.6843     ZZ     -96.2274
    Octopole Moments (Debye-Ang^2)
       XXX      19.8807    XXY       2.3045    XYY      10.3153
       YYY      14.3872    XXZ       1.1369    XYZ      -0.6776
       YYZ      -2.6838    XZZ      31.1642    YZZ       3.0287
       ZZZ      -1.4637
    Hexadecapole Moments (Debye-Ang^3)
      XXXX   -3604.3955   XXXY      15.7841   XXYY    -798.1599
      XYYY       3.7770   YYYY   -1477.5523   XXXZ      -1.6503
      XXYZ     -12.6929   XYYZ       4.3389   YYYZ      23.2903
      XXZZ    -639.7375   XYZZ      11.8080   YYZZ    -305.0620
      XZZZ     -20.1557   YZZZ       3.7117   ZZZZ    -161.6908
 -----------------------------------------------------------------
 Total job time:  97.80s(wall), 87.35s(cpu) 
 Fri Aug 12 12:45:00 2022

        *************************************************************
        *                                                           *
        *  Thank you very much for using Q-Chem.  Have a nice day.  *
        *                                                           *
        *************************************************************


