
Running Job 1 of 1 fragments/A031/conf-0/spe_input.inp
qchem fragments/A031/conf-0/spe_input.inp_303156.0 /gpfs/fs0/scratch/a/aspuru/rhickman/descriptor_computation/qchem303156/ 0
/scinet/niagara/software/commercial/qc52/exe/qcprog.exe_s fragments/A031/conf-0/spe_input.inp_303156.0 /gpfs/fs0/scratch/a/aspuru/rhickman/descriptor_computation/qchem303156/
                  Welcome to Q-Chem
     A Quantum Leap Into The Future Of Chemistry


 Q-Chem 5.2, Q-Chem, Inc., Pleasanton, CA (2019)

 License issued to: SRG Alan Aspuru-Guzik, University of Toronto

 Yihan Shao,  Zhengting Gan,  E. Epifanovsky,  A. T. B. Gilbert,  M. Wormit,  
 J. Kussmann,  A. W. Lange,  A. Behn,  Jia Deng,  Xintian Feng,  D. Ghosh,  
 M. Goldey,  P. R. Horn,  L. D. Jacobson,  I. Kaliman,  T. Kus,  A. Landau,  
 Jie Liu,  E. I. Proynov,  R. M. Richard,  R. P. Steele,  E. J. Sundstrom,  
 H. L. Woodcock III,  P. M. Zimmerman,  D. Zuev,  B. Albrecht,  E. Alguire,  
 S. A. Baeppler,  D. Barton,  Z. Benda,  Y. A. Bernard,  E. J. Berquist,  
 K. B. Bravaya,  H. Burton,  D. Casanova,  Chun-Min Chang,  Yunqing Chen,  
 A. Chien,  K. D. Closser,  M. P. Coons,  S. Coriani,  S. Dasgupta,  
 A. L. Dempwolff,  M. Diedenhofen,  Hainam Do,  R. G. Edgar,  Po-Tung Fang,  
 S. Faraji,  S. Fatehi,  Qingguo Feng,  K. D. Fenk,  J. Fosso-Tande,  
 J. Gayvert,  Qinghui Ge,  A. Ghysels,  G. Gidofalvi,  J. Gomes,  
 J. Gonthier,  A. Gunina,  D. Hait,  M. W. D. Hanson-Heine,  
 P. H. P. Harbach,  A. W. Hauser,  M. F. Herbst,  J. E. Herr,  
 E. G. Hohenstein,  Z. C. Holden,  Kerwin Hui,  B. C. Huynh,  T.-C. Jagau,  
 Hyunjun Ji,  B. Kaduk,  K. Khistyaev,  Jaehoon Kim,  P. Klunzinger,  K. Koh,  
 D. Kosenkov,  L. Koulias,  T. Kowalczyk,  C. M. Krauter,  A. Kunitsa,  
 Ka Un Lao,  A. Laurent,  K. V. Lawler,  Joonho Lee,  D. Lefrancois,  
 S. Lehtola,  D. S. Levine,  Yi-Pei Li,  You-Sheng Lin,  Fenglai Liu,  
 E. Livshits,  A. Luenser,  P. Manohar,  E. Mansoor,  S. F. Manzer,  
 Shan-Ping Mao,  Yuezhi Mao,  N. Mardirossian,  A. V. Marenich,  
 T. Markovich,  L. A. Martinez-Martinez,  S. A. Maurer,  N. J. Mayhall,  
 S. C. McKenzie,  J.-M. Mewes,  P. Morgante,  A. F. Morrison,  
 J. W. Mullinax,  K. Nanda,  T. S. Nguyen-Beck,  R. Olivares-Amaya,  
 J. A. Parkhill,  Zheng Pei,  T. M. Perrine,  F. Plasser,  P. Pokhilko,  
 S. Prager,  A. Prociuk,  E. Ramos,  D. R. Rehn,  F. Rob,  M. Scheurer,  
 M. Schneider,  N. Sergueev,  S. M. Sharada,  S. Sharma,  D. W. Small,  
 T. Stauch,  T. Stein,  Yu-Chuan Su,  A. J. W. Thom,  A. Tkatchenko,  
 T. Tsuchimochi,  N. M. Tubman,  L. Vogt,  M. L. Vidal,  O. Vydrov,  
 M. A. Watson,  J. Wenzel,  M. de Wergifosse,  T. A. Wesolowski,  A. White,  
 J. Witte,  A. Yamada,  Jun Yang,  K. Yao,  S. Yeganeh,  S. R. Yost,  
 Zhi-Qiang You,  A. Zech,  Igor Ying Zhang,  Xing Zhang,  Yan Zhao,  
 Ying Zhu,  B. R. Brooks,  G. K. L. Chan,  C. J. Cramer,  M. S. Gordon,  
 W. J. Hehre,  A. Klamt,  M. W. Schmidt,  C. D. Sherrill,  D. G. Truhlar,  
 A. Aspuru-Guzik,  R. Baer,  A. T. Bell,  N. A. Besley,  Jeng-Da Chai,  
 A. E. DePrince, III,  R. A. DiStasio Jr.,  A. Dreuw,  B. D. Dunietz,  
 T. R. Furlani,  Chao-Ping Hsu,  Yousung Jung,  Jing Kong,  D. S. Lambrecht,  
 WanZhen Liang,  C. Ochsenfeld,  V. A. Rassolov,  L. V. Slipchenko,  
 J. E. Subotnik,  T. Van Voorhis,  J. M. Herbert,  A. I. Krylov,  
 P. M. W. Gill,  M. Head-Gordon

 Contributors to earlier versions of Q-Chem not listed above: 
 R. D. Adamson,  B. Austin,  J. Baker,  G. J. O. Beran,  K. Brandhorst,  
 S. T. Brown,  E. F. C. Byrd,  A. K. Chakraborty,  C.-L. Cheng,  
 Siu Hung Chien,  D. M. Chipman,  D. L. Crittenden,  H. Dachsel,  
 R. J. Doerksen,  A. D. Dutoi,  L. Fusti-Molnar,  W. A. Goddard III,  
 A. Golubeva-Zadorozhnaya,  S. R. Gwaltney,  G. Hawkins,  A. Heyden,  
 S. Hirata,  G. Kedziora,  F. J. Keil,  C. Kelley,  Jihan Kim,  R. A. King,  
 R. Z. Khaliullin,  P. P. Korambath,  W. Kurlancheek,  A. M. Lee,  M. S. Lee,  
 S. V. Levchenko,  Ching Yeh Lin,  D. Liotard,  R. C. Lochan,  I. Lotan,  
 P. E. Maslen,  N. Nair,  D. P. O'Neill,  D. Neuhauser,  E. Neuscamman,  
 C. M. Oana,  R. Olson,  B. Peters,  R. Peverati,  P. A. Pieniazek,  
 Y. M. Rhee,  J. Ritchie,  M. A. Rohrdanz,  E. Rosta,  N. J. Russ,  
 H. F. Schaefer III,  N. E. Schultz,  N. Shenvi,  A. C. Simmonett,  A. Sodt,  
 D. Stuck,  K. S. Thanthiriwatte,  V. Vanovschi,  Tao Wang,  A. Warshel,  
 C. F. Williams,  Q. Wu,  X. Xu,  W. Zhang

 Please cite Q-Chem as follows:
 Y. Shao et al., Mol. Phys. 113, 184-215 (2015)
 DOI: 10.1080/00268976.2014.952696

 Q-Chem 5.2.1 for Intel X86 EM64T Linux

 Parts of Q-Chem use Armadillo 8.300.2 (Tropical Shenanigans).
 http://arma.sourceforge.net/

 Q-Chem begins on Tue Feb  8 13:35:51 2022  

Host: 
0

     Scratch files written to /gpfs/fs0/scratch/a/aspuru/rhickman/descriptor_computation/qchem303156//
 Jul1719 |scratch|qcdevops|jenkins|workspace|build_RNUM -1
Processing $rem in /scinet/niagara/software/commercial/qc52/config/preferences:
	 MEM_TOTAL  4000 
NAlpha2: 106
NElect   106
Mult     1

Checking the input file for inconsistencies... 	...done.

--------------------------------------------------------------
User input:
--------------------------------------------------------------
$molecule
0 1
F        -5.15986046070000    0.26719413610000   -0.01725562910000
C        -3.88031636540000   -0.09550996720000    0.02143441270000
F        -3.81070723380000   -1.41122024460000    0.17942663030000
C        -2.88044310070000    0.76788108280000   -0.08661910280000
C        -1.45202260400000    0.50400358290000   -0.06078804920000
C        -0.57908080750000    1.58565590060000   -0.20577762760000
C         0.78755469960000    1.40795188790000   -0.19562825960000
C         1.32486347590000    0.13269933740000   -0.03290554370000
N         2.70875750810000   -0.05182475280000   -0.01555058620000
C         3.65174905190000    0.82096623400000    0.44346880130000
N         4.85539867210000    0.34544207280000    0.33777314830000
C         4.71897721140000   -0.88730083910000   -0.22300824720000
C         3.40209875820000   -1.15867276950000   -0.43991998030000
C         0.46379492200000   -0.95222619890000    0.11659893680000
C        -0.90328375510000   -0.77010793760000    0.10050786020000
H        -3.17774148650000    1.79928149380000   -0.21023069660000
H        -0.98200172060000    2.57902655900000   -0.33553893180000
H         1.44328844420000    2.25448693550000   -0.32866869410000
H         3.40939288910000    1.77155934320000    0.87383680390000
H         5.57560798870000   -1.49615093070000   -0.43009655800000
H         2.91775521930000   -2.00474090970000   -0.88076385180000
H         0.86855988090000   -1.94206500870000    0.26088524000000
H        -1.54243311990000   -1.62886111860000    0.22069900950000
$end

$rem
BASIS = 6-31G*
GUI = 2
METHOD = B3LYP
PRINT_ORBITALS false
MOLDEN_FORMAT false
--------------------------------------------------------------
 ----------------------------------------------------------------
             Standard Nuclear Orientation (Angstroms)
    I     Atom           X                Y                Z
 ----------------------------------------------------------------
    1      F       5.2433648082    -0.2128456315    -0.0161972154
    2      C       3.9609248330     0.1391547640     0.0253685075
    3      F       3.8806660728     1.4531705295     0.1921666060
    4      C       2.9680730101    -0.7316139942    -0.0880917958
    5      C       1.5375612748    -0.4795619103    -0.0599916904
    6      C       0.6733993376    -1.5672991290    -0.2118896292
    7      C      -0.6946339915    -1.4008076913    -0.2000681815
    8      C      -1.2422453679    -0.1310896719    -0.0286435552
    9      N      -2.6275892456     0.0420327597    -0.0095650079
   10      C      -3.5632522501    -0.8414563923     0.4439519343
   11      N      -4.7707783931    -0.3750602511     0.3418614815
   12      C      -4.6446322309     0.8624682636    -0.2107251599
   13      C      -3.3300968514     1.1460023104    -0.4262882957
   14      C      -0.3899810889     0.9597937130     0.1277952600
   15      C       0.9785289150     0.7889315351     0.1100026061
   16      H       3.2737117883    -1.7597099535    -0.2186927140
   17      H       1.0843448507    -2.5564658195    -0.3484237527
   18      H      -1.3435052757    -2.2517506704    -0.3385246392
   19      H      -3.3129849994    -1.7928942420     0.8678772908
   20      H      -5.5062785932     1.4656870159    -0.4134391811
   21      H      -2.8528414868     1.9989118581    -0.8616455064
   22      H      -0.8027358656     1.9453167915     0.2788311321
   23      H       1.6107115856     1.6520425962     0.2356975387
 ----------------------------------------------------------------
 Molecular Point Group                 C1    NOp =  1
 Largest Abelian Subgroup              C1    NOp =  1
 Nuclear Repulsion Energy =         892.03610146 hartrees
 There are       53 alpha and       53 beta electrons
 Requested basis set is 6-31G(d)
 There are 76 shells and 241 basis functions

 Total QAlloc Memory Limit   4000 MB
 Mega-Array Size       188 MB
 MEM_STATIC part       192 MB
 A cutoff of  1.0D-08 yielded   1798 shell pairs
 There are     18816 function pairs
 Smallest overlap matrix eigenvalue = 3.77E-04

 Scale SEOQF with 1.000000e-02/1.000000e-01/1.000000e+00

 Standard Electronic Orientation quadrupole field applied
 Nucleus-field energy     =     0.0000000047 hartrees
 Guess from superposition of atomic densities
 Warning:  Energy on first SCF cycle will be non-variational
 SAD guess density has 106.000000 electrons

 -----------------------------------------------------------------------
  General SCF calculation program by
  Eric Jon Sundstrom, Paul Horn, Yuezhi Mao, Dmitri Zuev, Alec White,
  David Stuck, Shaama M.S., Shane Yost, Joonho Lee, David Small,
  Daniel Levine, Susi Lehtola, Hugh Burton, Evgeny Epifanovsky,
  Bang C. Huynh
 -----------------------------------------------------------------------
 Exchange:     0.2000 Hartree-Fock + 0.0800 Slater + 0.7200 B88
 Correlation:  0.1900 VWN1RPA + 0.8100 LYP
 Using SG-1 standard quadrature grid
 A restricted SCF calculation will be
 performed using DIIS
 SCF converges when DIIS error is below 1.0e-05
 ---------------------------------------
  Cycle       Energy         DIIS error
 ---------------------------------------
    1    -736.9721315259      5.38e-02  
    2    -732.9019456082      5.60e-03  
    3    -732.6315267172      8.40e-03  
    4    -733.1125781722      1.70e-03  
    5    -733.1305485532      6.38e-04  
    6    -733.1331231893      2.65e-04  
    7    -733.1336341864      5.42e-05  
    8    -733.1336496515      2.40e-05  
    9    -733.1336537962      5.74e-06  Convergence criterion met
 ---------------------------------------
 SCF time:   CPU 34.68s  wall 35.00s 
 SCF   energy in the final basis set =     -733.1336537962
 Total energy in the final basis set =     -733.1336537962
 
 --------------------------------------------------------------
 
                    Orbital Energies (a.u.)
 --------------------------------------------------------------
 
 Alpha MOs
 -- Occupied --
-24.7533 -24.7424 -14.4024 -14.3080 -10.3658 -10.2482 -10.2340 -10.2183
-10.2122 -10.2108 -10.2071 -10.2065 -10.2064 -10.2040 -10.1944  -1.2945
 -1.2333  -1.0323  -0.9112  -0.8708  -0.8141  -0.7725  -0.7582  -0.7378
 -0.6672  -0.6404  -0.6313  -0.5928  -0.5843  -0.5798  -0.5666  -0.5413
 -0.5278  -0.4925  -0.4766  -0.4683  -0.4522  -0.4493  -0.4465  -0.4456
 -0.4340  -0.4278  -0.4181  -0.4087  -0.3921  -0.3865  -0.3616  -0.3281
 -0.2803  -0.2730  -0.2644  -0.2343  -0.2197
 -- Virtual --
 -0.0439  -0.0183   0.0245   0.0673   0.0690   0.0784   0.1021   0.1194
  0.1306   0.1445   0.1583   0.1612   0.1658   0.1815   0.1869   0.2052
  0.2079   0.2274   0.2434   0.2871   0.3016   0.3224   0.3292   0.3381
  0.3705   0.4096   0.4194   0.4607   0.4746   0.4854   0.4944   0.5029
  0.5267   0.5310   0.5365   0.5421   0.5557   0.5584   0.5730   0.5774
  0.5801   0.5827   0.5916   0.6065   0.6121   0.6163   0.6289   0.6441
  0.6508   0.6697   0.6840   0.6942   0.7119   0.7623   0.7693   0.7892
  0.7978   0.8101   0.8212   0.8317   0.8372   0.8495   0.8535   0.8559
  0.8719   0.8798   0.9191   0.9217   0.9484   0.9716   0.9806   0.9909
  0.9960   1.0177   1.0563   1.0669   1.1059   1.1228   1.1431   1.1522
  1.1623   1.1808   1.1983   1.2119   1.2210   1.2506   1.2644   1.2883
  1.3332   1.3495   1.3672   1.3774   1.3944   1.4025   1.4186   1.4264
  1.4502   1.4561   1.4582   1.4701   1.4959   1.5016   1.5351   1.5461
  1.5717   1.5943   1.6347   1.6736   1.7034   1.7701   1.7716   1.7740
  1.8007   1.8104   1.8248   1.8287   1.8642   1.8775   1.8972   1.9010
  1.9195   1.9587   1.9756   1.9780   2.0079   2.0183   2.0234   2.0541
  2.0601   2.0810   2.1046   2.1287   2.1350   2.1429   2.1652   2.2062
  2.2147   2.2278   2.2493   2.2661   2.2978   2.3044   2.3129   2.3356
  2.3501   2.3587   2.4151   2.4671   2.4780   2.5154   2.5496   2.5919
  2.6043   2.6094   2.6365   2.6520   2.6759   2.7013   2.7308   2.7402
  2.7707   2.7947   2.8249   2.8951   2.9225   2.9658   3.0439   3.0550
  3.1342   3.1635   3.2264   3.3264   3.4718   3.9842   4.0664   4.0941
  4.1093   4.1228   4.1420   4.1558   4.2698   4.2903   4.3175   4.3951
  4.5012   4.7150   4.8062   5.2873
 --------------------------------------------------------------
 
          Ground-State Mulliken Net Atomic Charges

     Atom                 Charge (a.u.)
  ----------------------------------------
      1 F                    -0.244948
      2 C                     0.546876
      3 F                    -0.233185
      4 C                    -0.300364
      5 C                     0.203963
      6 C                    -0.205090
      7 C                    -0.163891
      8 C                     0.325659
      9 N                    -0.493161
     10 C                     0.195057
     11 N                    -0.431191
     12 C                    -0.038631
     13 C                     0.006290
     14 C                    -0.162253
     15 C                    -0.205031
     16 H                     0.162593
     17 H                     0.138114
     18 H                     0.149103
     19 H                     0.158778
     20 H                     0.138112
     21 H                     0.157855
     22 H                     0.147551
     23 H                     0.147796
  ----------------------------------------
  Sum of atomic charges =     0.000000

 -----------------------------------------------------------------
                    Cartesian Multipole Moments
 -----------------------------------------------------------------
    Charge (ESU x 10^10)
                 0.0000
    Dipole Moment (Debye)
         X       2.6885      Y       0.0003      Z      -0.6154
       Tot       2.7580
    Quadrupole Moments (Debye-Ang)
        XX    -105.3716     XY      -6.7603     YY     -74.2862
        XZ       2.8181     YZ      -0.7055     ZZ     -85.8245
    Octopole Moments (Debye-Ang^2)
       XXX     150.4700    XXY      26.7451    XYY      13.9300
       YYY       3.0168    XXZ     -18.4595    XYZ       5.6667
       YYZ      -1.9050    XZZ      25.8121    YZZ       4.4136
       ZZZ       2.9164
    Hexadecapole Moments (Debye-Ang^3)
      XXXX   -5673.9780   XXXY    -171.8806   XXYY    -863.5125
      XYYY      22.7649   YYYY    -514.9151   XXXZ     106.9453
      XXYZ     -13.9363   XYYZ       2.7905   YYYZ      -0.1561
      XXZZ    -852.9824   XYZZ      17.4606   YYZZ    -113.8623
      XZZZ       3.8599   YZZZ       0.7475   ZZZZ    -114.3759
 -----------------------------------------------------------------
Archival summary:
1\1\nia2015.scinet.local\SP\ProcedureUnspecified\6-31G*\22118\rhickman\TueFeb813:36:262022TueFeb813:36:262022\0\\#,ProcedureUnspecified,6-31G*,\\0,1\N\C,1,1.36444\H,2,1.07125,1,123.122\N,2,1.29849,1,112.272,3,177.83,0\C,4,1.36115,2,105.801,1,0.518565,0\H,5,1.07117,4,120.949,2,179.348,0\C,5,1.36193,4,110.059,2,-0.809654,0\H,7,1.06994,5,131.368,4,178.207,0\C,1,1.39625,2,127.204,3,1.28848,0\C,9,1.39315,1,120.554,2,-148.025,0\H,10,1.07909,9,119.792,1,0.858997,0\C,10,1.37925,9,120.567,1,179.951,0\H,12,1.07723,10,118.785,9,-179.873,0\C,9,1.39336,1,120.306,2,31.7463,0\H,14,1.07903,9,119.874,1,1.22824,0\C,14,1.37818,9,120.084,1,-179.695,0\H,16,1.0798,14,119.309,9,-179.828,0\C,12,1.3966,10,120.747,9,-0.235907,0\C,18,1.45282,12,123.646,10,-179.978,0\H,19,1.08049,18,116.484,12,179.541,0\C,19,1.32547,18,128.457,12,-0.500926,0\F,21,1.32699,19,128.023,18,-0.00324136,0\F,21,1.33052,19,123.06,18,-179.982,0\\\@

 Total job time:  34.99s(wall), 34.87s(cpu) 
 Tue Feb  8 13:36:26 2022

        *************************************************************
        *                                                           *
        *  Thank you very much for using Q-Chem.  Have a nice day.  *
        *                                                           *
        *************************************************************


