
Running Job 1 of 1 tidas/B055/conf-1/spe_input.inp
qchem tidas/B055/conf-1/spe_input.inp_134504.0 /home/a/aspuru/seifridm/acdc_laser/descriptor_computation/qchem134504/ 0
/gpfs/fs1/scinet/niagara/software/commercial/qc54/exe/qcprog.exe_s tidas/B055/conf-1/spe_input.inp_134504.0 /home/a/aspuru/seifridm/acdc_laser/descriptor_computation/qchem134504/
                  Welcome to Q-Chem
     A Quantum Leap Into The Future Of Chemistry


 Q-Chem 5.4, Q-Chem, Inc., Pleasanton, CA (2021)

 License issued to: SRG Alan Aspuru-Guzik, University of Toronto

 E. Epifanovsky,  A. T. B. Gilbert,  Xintian Feng,  Joonho Lee,  Yuezhi Mao,  
 N. Mardirossian,  P. Pokhilko,  A. White,  M. Wormit,  M. P. Coons,  
 A. L. Dempwolff,  Zhengting Gan,  D. Hait,  P. R. Horn,  L. D. Jacobson,  
 I. Kaliman,  J. Kussmann,  A. W. Lange,  Ka Un Lao,  D. S. Levine,  Jie Liu,  
 S. C. McKenzie,  A. F. Morrison,  K. Nanda,  F. Plasser,  D. R. Rehn,  
 M. L. Vidal,  Zhi-Qiang You,  Ying Zhu,  B. Alam,  B. Albrecht,  
 A. Aldossary,  E. Alguire,  J. H. Andersen,  D. Barton,  K. Begam,  A. Behn,  
 Y. A. Bernard,  E. J. Berquist,  H. Burton,  A. Carreras,  K. Carter-Fenk,  
 Romit Chakraborty,  A. D. Chien,  K. D. Closser,  V. Cofer-Shabica,  
 S. Dasgupta,  Jia Deng,  M. de Wergifosse,  M. Diedenhofen,  Hainam Do,  
 S. Ehlert,  Po-Tung Fang,  S. Fatehi,  Qingguo Feng,  T. Friedhoff,  
 J. Gayvert,  Qinghui Ge,  G. Gidofalvi,  M. Goldey,  J. Gomes,  
 C. Gonzalez-Espinoza,  S. Gulania,  A. Gunina,  M. W. D. Hanson-Heine,  
 P. H. P. Harbach,  A. W. Hauser,  M. F. Herbst,  M. Hernandez Vera,  
 M. Hodecker,  Z. C. Holden,  S. Houck,  Xunkun Huang,  Kerwin Hui,  
 B. C. Huynh,  M. Ivanov,  Hyunjun Ji,  Hanjie Jiang,  B. Kaduk,  S. Kaehler,  
 K. Khistyaev,  Jaehoon Kim,  P. Klunzinger,  Z. Koczor-Benda,  
 Joong Hoon Koh,  D. Kosenkov,  L. Koulias,  T. Kowalczyk,  C. M. Krauter,  
 K. Kue,  A. Kunitsa,  T. Kus,  A. Landau,  K. V. Lawler,  D. Lefrancois,  
 S. Lehtola,  Rain Li,  Yi-Pei Li,  Jiashu Liang,  M. Liebenthal,  
 Hung-Hsuan Lin,  You-Sheng Lin,  Fenglai Liu,  Kuan-Yu Liu,  
 M. Loipersberger,  A. Luenser,  A. Manjanath,  P. Manohar,  E. Mansoor,  
 S. F. Manzer,  Shan-Ping Mao,  A. V. Marenich,  T. Markovich,  S. Mason,  
 S. A. Maurer,  P. F. McLaughlin,  M. F. S. J. Menger,  J.-M. Mewes,  
 S. A. Mewes,  P. Morgante,  J. W. Mullinax,  K. J. Oosterbaan,  G. Paran,  
 Alexander C. Paul,  Suranjan K. Paul,  F. Pavosevic,  Zheng Pei,  S. Prager,  
 E. I. Proynov,  E. Ramos,  B. Rana,  A. E. Rask,  A. Rettig,  R. M. Richard,  
 F. Rob,  E. Rossomme,  T. Scheele,  M. Scheurer,  M. Schneider,  
 N. Sergueev,  S. M. Sharada,  W. Skomorowski,  D. W. Small,  C. J. Stein,  
 Yu-Chuan Su,  E. J. Sundstrom,  Zhen Tao,  J. Thirman,  T. Tsuchimochi,  
 N. M. Tubman,  S. P. Veccham,  O. Vydrov,  J. Wenzel,  J. Witte,  A. Yamada,  
 Kun Yao,  S. Yeganeh,  S. R. Yost,  A. Zech,  Igor Ying Zhang,  Xing Zhang,  
 Yu Zhang,  D. Zuev,  A. Aspuru-Guzik,  A. T. Bell,  N. A. Besley,  
 K. B. Bravaya,  B. R. Brooks,  D. Casanova,  Jeng-Da Chai,  S. Coriani,  
 C. J. Cramer,  A. E. DePrince, III,  R. A. DiStasio Jr.,  A. Dreuw,  
 B. D. Dunietz,  T. R. Furlani,  W. A. Goddard III,  S. Grimme,  
 S. Hammes-Schiffer,  T. Head-Gordon,  W. J. Hehre,  Chao-Ping Hsu,  
 T.-C. Jagau,  Yousung Jung,  A. Klamt,  Jing Kong,  D. S. Lambrecht,  
 WanZhen Liang,  N. J. Mayhall,  C. W. McCurdy,  J. B. Neaton,  T. Neudecker,  
 C. Ochsenfeld,  J. A. Parkhill,  R. Peverati,  V. A. Rassolov,  Yihan Shao,  
 L. V. Slipchenko,  R. P. Steele,  J. E. Subotnik,  A. J. W. Thom,  
 A. Tkatchenko,  D. G. Truhlar,  T. Van Voorhis,  T. A. Wesolowski,  
 K. B. Whaley,  H. L. Woodcock III,  P. M. Zimmerman,  S. Faraji,  
 P. M. W. Gill,  M. Head-Gordon,  J. M. Herbert,  A. I. Krylov

 Additional authors since Version 5.4.0: 
 Chandrima Chakravarty,  L. Cunha,  R. Kang,  Yongbin Kim,  S. Kotaru,  
 Shaozhi Li,  Xiangyuan Li,  F. Matz,  A. Molle,  V. Parravicini,  
 Haisheng Ren,  Hengyuan Shen,  Yingli Su,  Hung-Yi Tsai,  C. Utku,  
 Fang Wang,  Jeff Yang,  F. Zeller

 Contributors to earlier versions of Q-Chem not listed above: 
 R. D. Adamson,  B. Austin,  R. Baer,  J. Baker,  G. J. O. Beran,  
 K. Brandhorst,  S. T. Brown,  E. F. C. Byrd,  Arup K. Chakraborty,  
 G. K. L. Chan,  Chun-Min Chang,  Yunqing Chen,  C.-L. Cheng,  
 Siu Hung Chien,  D. M. Chipman,  D. L. Crittenden,  H. Dachsel,  
 R. J. Doerksen,  A. D. Dutoi,  R. G. Edgar,  J. Fosso-Tande,  
 L. Fusti-Molnar,  D. Ghosh,  A. Ghysels,  A. Golubeva-Zadorozhnaya,  
 J. Gonthier,  M. S. Gordon,  S. R. Gwaltney,  G. Hawkins,  J. E. Herr,  
 A. Heyden,  S. Hirata,  E. G. Hohenstein,  G. Kedziora,  F. J. Keil,  
 C. Kelley,  Jihan Kim,  R. A. King,  R. Z. Khaliullin,  P. P. Korambath,  
 W. Kurlancheek,  A. Laurent,  A. M. Lee,  M. S. Lee,  S. V. Levchenko,  
 Ching Yeh Lin,  D. Liotard,  E. Livshits,  R. C. Lochan,  I. Lotan,  
 L. A. Martinez-Martinez,  P. E. Maslen,  N. Nair,  D. P. O'Neill,  
 D. Neuhauser,  E. Neuscamman,  C. M. Oana,  R. Olivares-Amaya,  R. Olson,  
 T. M. Perrine,  B. Peters,  P. A. Pieniazek,  A. Prociuk,  Y. M. Rhee,  
 J. Ritchie,  M. A. Rohrdanz,  E. Rosta,  N. J. Russ,  H. F. Schaefer III,  
 M. W. Schmidt,  N. E. Schultz,  S. Sharma,  N. Shenvi,  C. D. Sherrill,  
 A. C. Simmonett,  A. Sodt,  T. Stein,  D. Stuck,  K. S. Thanthiriwatte,  
 V. Vanovschi,  L. Vogt,  Tao Wang,  A. Warshel,  M. A. Watson,  
 C. F. Williams,  Q. Wu,  X. Xu,  Jun Yang,  W. Zhang,  Yan Zhao

   Please cite Q-Chem as follows:
  "Software for the frontiers of quantum chemistry:
   An overview of developments in the Q-Chem 5 package"
   J. Chem. Phys. 155, 084801 (2021)
   https://doi.org/10.1063/5.0055522 (open access)

 Q-Chem 5.4.2 for Intel X86 EM64T Linux

 Parts of Q-Chem use Armadillo 9.900.5 (Nocturnal Misbehaviour).
 http://arma.sourceforge.net/

 Q-Chem begins on Fri Aug 12 13:11:43 2022  

 Host: 
0

     Scratch files written to /home/a/aspuru/seifridm/acdc_laser/descriptor_computation/qchem134504//
 Dec1321 |scratch|qcdevops|jenkins|workspace|build_RNUM 6959   
 Processing $rem in /gpfs/fs1/scinet/niagara/software/commercial/qc54/config/preferences:
 Processing $rem in /home/a/aspuru/seifridm/.qchemrc:

 Checking the input file for inconsistencies... 	...done.

--------------------------------------------------------------
User input:
--------------------------------------------------------------
$molecule
0 1
C           -2.77341219500000        2.79842888920000        0.21473851260000
C           -2.30840696390000        1.72442098410000       -0.40791704740000
C           -0.96450246410000        1.17754568740000       -0.23668890150000
C            0.11572336730000        2.03379310950000       -0.02102221740000
C            1.40924390890000        1.56166246480000        0.06281265420000
C            1.64520240640000        0.20183793720000       -0.09650920840000
C            3.03862230740000       -0.35127536880000       -0.01550458420000
F            3.98708006510000        0.58106072460000       -0.17741048950000
F            3.28255018520000       -0.93436616610000        1.17553150520000
F            3.26990249170000       -1.29695938370000       -0.94258999630000
C            0.59103408840000       -0.67169823070000       -0.30752031370000
C           -0.71757088380000       -0.20118753830000       -0.35858677600000
C           -1.78094124330000       -1.19141341820000       -0.53253464200000
C           -2.92774572540000       -1.22319289490000        0.12617767800000
F           -3.33479141630000       -0.38297942940000        1.06628570460000
F           -3.85021153110000       -2.16311080160000       -0.05001179500000
H           -3.77010158630000        3.16252507710000        0.03760485300000
H           -2.19189297600000        3.33382353260000        0.94595100150000
H           -2.94368412930000        1.18802162340000       -1.10143361480000
H           -0.06716079800000        3.09379978000000        0.05833570390000
H            2.23263494280000        2.23863815400000        0.22860566900000
H            0.78554081210000       -1.72778642440000       -0.42077311110000
H           -1.59197561270000       -2.00980326410000       -1.21135480390000
$end

$rem
BASIS = 6-31G*
GUI = 2
METHOD = B3LYP
PRINT_ORBITALS false
MOLDEN_FORMAT false
$end
--------------------------------------------------------------
 ----------------------------------------------------------------
             Standard Nuclear Orientation (Angstroms)
    I     Atom           X                Y                Z
 ----------------------------------------------------------------
    1      C       2.7720878313     2.7051596020    -0.0841898450
    2      C       2.2762513943     1.6220034979     0.4974817750
    3      C       0.9291661156     1.1004548637     0.2788056523
    4      C      -0.1328186496     1.9785391203     0.0603657062
    5      C      -1.4306112900     1.5285826245    -0.0677141023
    6      C      -1.6902106965     0.1687163865     0.0487100242
    7      C      -3.0891108101    -0.3607391662    -0.0811760365
    8      F      -4.0276015609     0.5812395823     0.0829805330
    9      F      -3.3120050227    -0.9078148390    -1.2932358667
   10      F      -3.3569705555    -1.3273763118     0.8138993383
   11      C      -0.6544094732    -0.7261264463     0.2613931130
   12      C       0.6592473430    -0.2771377728     0.3570487917
   13      C       1.7034632157    -1.2877582098     0.5297370031
   14      C       2.8656066632    -1.3192729142    -0.1015329920
   15      F       3.3079454739    -0.4603819725    -1.0082251617
   16      F       3.7696531452    -2.2775243029     0.0713421044
   17      H       3.7692932569     3.0491441976     0.1269689751
   18      H       2.2166687626     3.2688123478    -0.8144562145
   19      H       2.8863229416     1.0575415249     1.1913563807
   20      H       0.0673867710     3.0373887972     0.0143919062
   21      H      -2.2397095868     2.2222293390    -0.2349575892
   22      H      -0.8670129790    -1.7817938699     0.3410635256
   23      H       1.4858876527    -2.1211312554     1.1812099517
 ----------------------------------------------------------------
 Molecular Point Group                 C1    NOp =  1
 Largest Abelian Subgroup              C1    NOp =  1
 Nuclear Repulsion Energy =        1092.93159140 hartrees
 There are       59 alpha and       59 beta electrons
 Requested basis set is 6-31G(d)
 There are 78 shells and 254 basis functions

 Total QAlloc Memory Limit   8000 MB
 Mega-Array Size       188 MB
 MEM_STATIC part       192 MB
 A cutoff of  1.0D-08 yielded   1917 shell pairs
 There are     21310 function pairs
 Smallest overlap matrix eigenvalue = 3.41E-04

 Scale SEOQF with 1.000000e-01/1.000000e-01/1.000000e+00

 Standard Electronic Orientation quadrupole field applied
 Nucleus-field energy     =     0.0000000062 hartrees
 Guess from superposition of atomic densities
 Warning:  Energy on first SCF cycle will be non-variational
 SAD guess density has 118.000000 electrons

 -----------------------------------------------------------------------
  General SCF calculation program by
  Eric Jon Sundstrom, Paul Horn, Yuezhi Mao, Dmitri Zuev, Alec White,
  David Stuck, Shaama M.S., Shane Yost, Joonho Lee, David Small,
  Daniel Levine, Susi Lehtola, Hugh Burton, Evgeny Epifanovsky,
  Bang C. Huynh
 -----------------------------------------------------------------------
 Exchange:     0.2000 Hartree-Fock + 0.0800 Slater + 0.7200 B88
 Correlation:  0.1900 VWN1RPA + 0.8100 LYP
 Using SG-1 standard quadrature grid
 A restricted SCF calculation will be
 performed using DIIS
 SCF converges when DIIS error is below 1.0e-05
 ---------------------------------------
  Cycle       Energy         DIIS error
 ---------------------------------------
    1    -925.9708342369      4.87e-02  
    2    -922.2774671922      6.10e-03  
    3    -922.0362010567      8.60e-03  
    4    -922.5350490016      1.16e-03  
    5    -922.5439338721      5.08e-04  
    6    -922.5456833529      2.08e-04  
    7    -922.5460412908      5.09e-05  
    8    -922.5460605001      1.69e-05  
    9    -922.5460632583      3.72e-06  Convergence criterion met
 ---------------------------------------
 SCF time:   CPU 66.87s  wall 68.00s 
 SCF   energy in the final basis set =     -922.5460632583
 Total energy in the final basis set =     -922.5460632583
 
 --------------------------------------------------------------
 
                    Orbital Energies (a.u.)
 --------------------------------------------------------------
 
 Alpha MOs
 -- Occupied --
-24.7476 -24.7432 -24.7240 -24.7203 -24.7147 -10.4288 -10.3667 -10.2210
-10.2166 -10.2144 -10.2116 -10.2094 -10.2077 -10.2033 -10.1997 -10.1897
 -1.3042  -1.2928  -1.2320  -1.2151  -1.2084  -0.8919  -0.8275  -0.8102
 -0.7600  -0.7546  -0.6956  -0.6563  -0.6417  -0.6207  -0.5844  -0.5815
 -0.5781  -0.5755  -0.5722  -0.5279  -0.5167  -0.5019  -0.4825  -0.4667
 -0.4542  -0.4534  -0.4482  -0.4457  -0.4420  -0.4397  -0.4213  -0.4182
 -0.4164  -0.4095  -0.3931  -0.3854  -0.3793  -0.3633  -0.3559  -0.3068
 -0.2996  -0.2529  -0.2366
 -- Virtual --
 -0.0481  -0.0305   0.0303   0.0359   0.0911   0.1083   0.1107   0.1332
  0.1471   0.1491   0.1546   0.1687   0.1754   0.1953   0.2067   0.2268
  0.2374   0.2575   0.2691   0.2964   0.3149   0.3465   0.3506   0.3673
  0.4016   0.4223   0.4425   0.4760   0.4834   0.4921   0.5076   0.5161
  0.5209   0.5292   0.5351   0.5464   0.5670   0.5706   0.5875   0.5900
  0.5996   0.6022   0.6117   0.6155   0.6464   0.6566   0.6741   0.6844
  0.7126   0.7289   0.7336   0.7677   0.8049   0.8166   0.8308   0.8352
  0.8525   0.8563   0.8664   0.8940   0.9128   0.9307   0.9406   0.9610
  0.9734   0.9955   1.0180   1.0257   1.0505   1.0791   1.0917   1.0990
  1.1063   1.1276   1.1430   1.1561   1.1654   1.1877   1.1974   1.2053
  1.2286   1.2573   1.2810   1.2873   1.3298   1.3364   1.3433   1.3514
  1.3594   1.3819   1.3864   1.3897   1.4117   1.4310   1.4401   1.4436
  1.4729   1.4762   1.4837   1.5166   1.5252   1.5801   1.6034   1.6417
  1.6586   1.6681   1.6734   1.7165   1.7202   1.7331   1.7581   1.7789
  1.7874   1.8071   1.8154   1.8385   1.8433   1.8606   1.8650   1.8866
  1.8948   1.9079   1.9515   1.9634   1.9726   1.9824   1.9883   1.9995
  2.0064   2.0101   2.0224   2.0336   2.0591   2.0766   2.0960   2.0992
  2.1147   2.1196   2.1243   2.1514   2.1794   2.1913   2.2079   2.2284
  2.2472   2.2695   2.2911   2.3088   2.3299   2.3904   2.4153   2.4197
  2.4491   2.4860   2.5117   2.5320   2.5733   2.6052   2.6232   2.6516
  2.6679   2.7057   2.7149   2.7616   2.7668   2.8184   2.8395   2.8550
  2.9341   2.9873   3.0131   3.0264   3.0323   3.0519   3.1119   3.1221
  3.1388   3.2866   3.4536   4.0724   4.0853   4.1051   4.1103   4.1514
  4.2325   4.2558   4.3371   4.4000   4.4104   4.5437   4.6778   4.7953
  4.8049   5.2569   5.5817
 --------------------------------------------------------------
 
          Ground-State Mulliken Net Atomic Charges

     Atom                 Charge (a.u.)
  ----------------------------------------
      1 C                    -0.335826
      2 C                    -0.128852
      3 C                     0.124214
      4 C                    -0.192646
      5 C                    -0.159037
      6 C                    -0.005759
      7 C                     0.775431
      8 F                    -0.266036
      9 F                    -0.262670
     10 F                    -0.267601
     11 C                    -0.215024
     12 C                     0.108848
     13 C                    -0.342486
     14 C                     0.570853
     15 F                    -0.224891
     16 F                    -0.241810
     17 H                     0.149350
     18 H                     0.147779
     19 H                     0.142266
     20 H                     0.141676
     21 H                     0.154692
     22 H                     0.153371
     23 H                     0.174159
  ----------------------------------------
  Sum of atomic charges =     0.000000

 -----------------------------------------------------------------
                    Cartesian Multipole Moments
 -----------------------------------------------------------------
    Charge (ESU x 10^10)
                -0.0000
    Dipole Moment (Debye)
         X       1.7649      Y       1.0044      Z       0.6577
       Tot       2.1345
    Quadrupole Moments (Debye-Ang)
        XX     -94.6410     XY      -0.1729     YY     -80.7799
        XZ       1.5669     YZ      -2.4506     ZZ     -88.5402
    Octopole Moments (Debye-Ang^2)
       XXX       3.6334    XXY      10.5404    XYY      -6.8300
       YYY     -21.3890    XXZ       3.5848    XYZ      -0.2513
       YYZ      -7.1966    XZZ      -5.1321    YZZ     -14.2850
       ZZZ     -11.0162
    Hexadecapole Moments (Debye-Ang^3)
      XXXX   -3437.9968   XXXY       5.6933   XXYY    -739.3141
      XYYY     -24.6922   YYYY   -1108.6485   XXXZ       6.0634
      XXYZ       0.5859   XYYZ      -9.6608   YYYZ     -22.9716
      XXZZ    -598.3405   XYZZ     -21.5720   YYZZ    -231.0862
      XZZZ     -18.8446   YZZZ      -0.9579   ZZZZ    -213.2768
 -----------------------------------------------------------------
 Total job time:  72.08s(wall), 67.45s(cpu) 
 Fri Aug 12 13:12:55 2022

        *************************************************************
        *                                                           *
        *  Thank you very much for using Q-Chem.  Have a nice day.  *
        *                                                           *
        *************************************************************


