47
 energy: -92.145885462799 gnorm: 0.000033590238 xtb: 6.4.1 (23d549d)
C         4.71789139700000   -1.71022163600000    0.70948128590000
O         3.66773977890000   -2.44145718190000    0.09232936630000
C         2.43248798660000   -2.16501121120000    0.52676918070000
C         1.40729538060000   -2.98637088750000   -0.17139386690000
C         0.19710841040000   -2.41457700170000   -0.59209195810000
N        -0.01144069450000   -1.03255910560000   -0.52163882360000
C         1.02726100800000   -0.16169947190000   -0.84135643740000
C         1.18675759370000    1.03924865020000   -0.14935835130000
C         2.24403236620000    1.87218912280000   -0.46497365500000
C         2.45473010970000    3.15402312790000    0.28816193090000
F         1.45661222090000    3.45859185000000    1.12546527110000
F         3.57999099930000    3.12444048340000    1.02899683770000
F         2.59066022150000    4.20973213100000   -0.53823363120000
C         3.15965179070000    1.53734249440000   -1.45651709910000
C         2.99363034710000    0.34774488780000   -2.14400152860000
C         1.93871310640000   -0.49290010090000   -1.84678270540000
C        -1.24791209640000   -0.54380460410000   -0.08813986110000
C        -1.96959771530000   -1.22011836770000    0.89542292460000
C        -3.19192496730000   -0.74130007720000    1.31118717750000
C        -3.73956564440000    0.42371056220000    0.76580192920000
C        -5.03218963600000    0.86864888860000    1.25415980350000
C        -5.75203239390000    1.90829025950000    0.85657785500000
F        -5.46168331660000    2.79105761890000   -0.09208443630000
F        -6.93581152110000    2.21693087530000    1.38429803260000
C        -3.00981838760000    1.09577272740000   -0.21822535350000
C        -1.78714718620000    0.61921929090000   -0.63908090380000
C        -0.78968555920000   -3.24107036320000   -1.12888503020000
C        -0.57446352480000   -4.59883245540000   -1.25795422680000
C         0.63608097380000   -5.15664457890000   -0.87464497850000
C         1.62104440810000   -4.34999516630000   -0.33600208090000
O         2.19614732750000   -1.36894236180000    1.40069692310000
H         5.64188435680000   -2.07498869870000    0.26902123750000
H         4.71233344520000   -1.87494132940000    1.78860647110000
H         4.59516527050000   -0.64198072380000    0.51728339540000
H         0.50454979320000    1.29922806850000    0.64422728850000
H         3.98127169660000    2.19964378800000   -1.67945121950000
H         3.69083344690000    0.07478189570000   -2.92093048420000
H         1.81642933370000   -1.41736455270000   -2.39170520490000
H        -1.55570080590000   -2.11347098560000    1.33787510850000
H        -3.73366124830000   -1.27203319380000    2.08003530510000
H        -5.47635354790000    0.28134604920000    2.04498872320000
H        -3.39786061850000    1.99544562380000   -0.66595437590000
H        -1.24193855230000    1.14636595810000   -1.40780789070000
H        -1.72226995640000   -2.80200084270000   -1.45073830880000
H        -1.34949821920000   -5.22351721210000   -1.67566631170000
H         0.80779984050000   -6.21530171770000   -0.99079586570000
H         2.56134073120000   -4.77188986070000   -0.01636112110000
