32
 energy: -39.098966314645 gnorm: 0.000039777920 xtb: 6.4.1 (23d549d)
C        -3.34510060410000    1.69776702300000   -0.75762112960000
C        -2.38887358840000    1.53074717650000    0.14033911150000
C        -1.19315420460000    0.69148083550000   -0.04847822130000
C         0.04743864350000    1.31506066100000   -0.02412421580000
C         1.24184729830000    0.62961118120000   -0.19713808780000
C         2.52119814510000    1.42050759790000   -0.18238273210000
C         2.89430396460000    1.85446058700000    1.23648130720000
C         1.18855152150000   -0.75223490310000   -0.40297218780000
C         2.35866472180000   -1.61140801420000   -0.61259844430000
C         3.48129444210000   -1.60831260560000    0.09075163790000
C        -0.06024734570000   -1.37335275260000   -0.43684495620000
C        -1.24960240850000   -0.69065539510000   -0.25420487250000
C        -2.54285862980000   -1.45575964350000   -0.19385582420000
C        -2.95163502360000   -1.68709795590000    1.26185148670000
H        -4.18531526570000    2.34824198330000   -0.58051030090000
H        -3.31884659120000    1.20241911450000   -1.71462742370000
H        -2.42335764970000    2.07933043370000    1.07512310610000
H         0.08005711320000    2.38725039120000    0.11791903340000
H         2.38839290000000    2.31569768560000   -0.79619116420000
H         3.33194038550000    0.83324011130000   -0.61415690020000
H         2.11860947320000    2.49094336270000    1.65606586020000
H         3.83057320310000    2.40847114840000    1.23022529570000
H         3.00629966720000    0.99085949190000    1.88820965370000
H         2.23251979990000   -2.34875893440000   -1.39784423670000
H         3.64449415900000   -0.93914716210000    0.91720772570000
H         4.27874160850000   -2.30098406440000   -0.12210613640000
H        -0.09458925620000   -2.44314769680000   -0.59636668890000
H        -2.41785460030000   -2.41973242330000   -0.69109098120000
H        -3.33765491810000   -0.91083413430000   -0.70189802990000
H        -2.16966928660000   -2.22399668400000    1.79479196360000
H        -3.86975815630000   -2.26814805930000    1.31232235040000
H        -3.11635387520000   -0.73472813360000    1.76083173270000
