
Running Job 1 of 1 fragments/C095/conf-8/spe_input.inp
qchem fragments/C095/conf-8/spe_input.inp_333266.0 /gpfs/fs0/scratch/a/aspuru/rhickman/descriptor_computation/qchem333266/ 0
/scinet/niagara/software/commercial/qc52/exe/qcprog.exe_s fragments/C095/conf-8/spe_input.inp_333266.0 /gpfs/fs0/scratch/a/aspuru/rhickman/descriptor_computation/qchem333266/
                  Welcome to Q-Chem
     A Quantum Leap Into The Future Of Chemistry


 Q-Chem 5.2, Q-Chem, Inc., Pleasanton, CA (2019)

 License issued to: SRG Alan Aspuru-Guzik, University of Toronto

 Yihan Shao,  Zhengting Gan,  E. Epifanovsky,  A. T. B. Gilbert,  M. Wormit,  
 J. Kussmann,  A. W. Lange,  A. Behn,  Jia Deng,  Xintian Feng,  D. Ghosh,  
 M. Goldey,  P. R. Horn,  L. D. Jacobson,  I. Kaliman,  T. Kus,  A. Landau,  
 Jie Liu,  E. I. Proynov,  R. M. Richard,  R. P. Steele,  E. J. Sundstrom,  
 H. L. Woodcock III,  P. M. Zimmerman,  D. Zuev,  B. Albrecht,  E. Alguire,  
 S. A. Baeppler,  D. Barton,  Z. Benda,  Y. A. Bernard,  E. J. Berquist,  
 K. B. Bravaya,  H. Burton,  D. Casanova,  Chun-Min Chang,  Yunqing Chen,  
 A. Chien,  K. D. Closser,  M. P. Coons,  S. Coriani,  S. Dasgupta,  
 A. L. Dempwolff,  M. Diedenhofen,  Hainam Do,  R. G. Edgar,  Po-Tung Fang,  
 S. Faraji,  S. Fatehi,  Qingguo Feng,  K. D. Fenk,  J. Fosso-Tande,  
 J. Gayvert,  Qinghui Ge,  A. Ghysels,  G. Gidofalvi,  J. Gomes,  
 J. Gonthier,  A. Gunina,  D. Hait,  M. W. D. Hanson-Heine,  
 P. H. P. Harbach,  A. W. Hauser,  M. F. Herbst,  J. E. Herr,  
 E. G. Hohenstein,  Z. C. Holden,  Kerwin Hui,  B. C. Huynh,  T.-C. Jagau,  
 Hyunjun Ji,  B. Kaduk,  K. Khistyaev,  Jaehoon Kim,  P. Klunzinger,  K. Koh,  
 D. Kosenkov,  L. Koulias,  T. Kowalczyk,  C. M. Krauter,  A. Kunitsa,  
 Ka Un Lao,  A. Laurent,  K. V. Lawler,  Joonho Lee,  D. Lefrancois,  
 S. Lehtola,  D. S. Levine,  Yi-Pei Li,  You-Sheng Lin,  Fenglai Liu,  
 E. Livshits,  A. Luenser,  P. Manohar,  E. Mansoor,  S. F. Manzer,  
 Shan-Ping Mao,  Yuezhi Mao,  N. Mardirossian,  A. V. Marenich,  
 T. Markovich,  L. A. Martinez-Martinez,  S. A. Maurer,  N. J. Mayhall,  
 S. C. McKenzie,  J.-M. Mewes,  P. Morgante,  A. F. Morrison,  
 J. W. Mullinax,  K. Nanda,  T. S. Nguyen-Beck,  R. Olivares-Amaya,  
 J. A. Parkhill,  Zheng Pei,  T. M. Perrine,  F. Plasser,  P. Pokhilko,  
 S. Prager,  A. Prociuk,  E. Ramos,  D. R. Rehn,  F. Rob,  M. Scheurer,  
 M. Schneider,  N. Sergueev,  S. M. Sharada,  S. Sharma,  D. W. Small,  
 T. Stauch,  T. Stein,  Yu-Chuan Su,  A. J. W. Thom,  A. Tkatchenko,  
 T. Tsuchimochi,  N. M. Tubman,  L. Vogt,  M. L. Vidal,  O. Vydrov,  
 M. A. Watson,  J. Wenzel,  M. de Wergifosse,  T. A. Wesolowski,  A. White,  
 J. Witte,  A. Yamada,  Jun Yang,  K. Yao,  S. Yeganeh,  S. R. Yost,  
 Zhi-Qiang You,  A. Zech,  Igor Ying Zhang,  Xing Zhang,  Yan Zhao,  
 Ying Zhu,  B. R. Brooks,  G. K. L. Chan,  C. J. Cramer,  M. S. Gordon,  
 W. J. Hehre,  A. Klamt,  M. W. Schmidt,  C. D. Sherrill,  D. G. Truhlar,  
 A. Aspuru-Guzik,  R. Baer,  A. T. Bell,  N. A. Besley,  Jeng-Da Chai,  
 A. E. DePrince, III,  R. A. DiStasio Jr.,  A. Dreuw,  B. D. Dunietz,  
 T. R. Furlani,  Chao-Ping Hsu,  Yousung Jung,  Jing Kong,  D. S. Lambrecht,  
 WanZhen Liang,  C. Ochsenfeld,  V. A. Rassolov,  L. V. Slipchenko,  
 J. E. Subotnik,  T. Van Voorhis,  J. M. Herbert,  A. I. Krylov,  
 P. M. W. Gill,  M. Head-Gordon

 Contributors to earlier versions of Q-Chem not listed above: 
 R. D. Adamson,  B. Austin,  J. Baker,  G. J. O. Beran,  K. Brandhorst,  
 S. T. Brown,  E. F. C. Byrd,  A. K. Chakraborty,  C.-L. Cheng,  
 Siu Hung Chien,  D. M. Chipman,  D. L. Crittenden,  H. Dachsel,  
 R. J. Doerksen,  A. D. Dutoi,  L. Fusti-Molnar,  W. A. Goddard III,  
 A. Golubeva-Zadorozhnaya,  S. R. Gwaltney,  G. Hawkins,  A. Heyden,  
 S. Hirata,  G. Kedziora,  F. J. Keil,  C. Kelley,  Jihan Kim,  R. A. King,  
 R. Z. Khaliullin,  P. P. Korambath,  W. Kurlancheek,  A. M. Lee,  M. S. Lee,  
 S. V. Levchenko,  Ching Yeh Lin,  D. Liotard,  R. C. Lochan,  I. Lotan,  
 P. E. Maslen,  N. Nair,  D. P. O'Neill,  D. Neuhauser,  E. Neuscamman,  
 C. M. Oana,  R. Olson,  B. Peters,  R. Peverati,  P. A. Pieniazek,  
 Y. M. Rhee,  J. Ritchie,  M. A. Rohrdanz,  E. Rosta,  N. J. Russ,  
 H. F. Schaefer III,  N. E. Schultz,  N. Shenvi,  A. C. Simmonett,  A. Sodt,  
 D. Stuck,  K. S. Thanthiriwatte,  V. Vanovschi,  Tao Wang,  A. Warshel,  
 C. F. Williams,  Q. Wu,  X. Xu,  W. Zhang

 Please cite Q-Chem as follows:
 Y. Shao et al., Mol. Phys. 113, 184-215 (2015)
 DOI: 10.1080/00268976.2014.952696

 Q-Chem 5.2.1 for Intel X86 EM64T Linux

 Parts of Q-Chem use Armadillo 8.300.2 (Tropical Shenanigans).
 http://arma.sourceforge.net/

 Q-Chem begins on Tue Feb  8 15:09:36 2022  

Host: 
0

     Scratch files written to /gpfs/fs0/scratch/a/aspuru/rhickman/descriptor_computation/qchem333266//
 Jul1719 |scratch|qcdevops|jenkins|workspace|build_RNUM -1
Processing $rem in /scinet/niagara/software/commercial/qc52/config/preferences:
	 MEM_TOTAL  4000 
NAlpha2: 152
NElect   152
Mult     1

Checking the input file for inconsistencies... 	...done.

--------------------------------------------------------------
User input:
--------------------------------------------------------------
$molecule
0 1
C         4.81875300080000   -0.77269765800000    1.06055017260000
C         3.66597369540000   -0.22208200570000    1.41789009840000
C         2.49784440580000   -0.05748572780000    0.57290642800000
C         1.21468443230000   -0.10189313980000    1.05555840110000
N         0.31163825730000   -0.02906797320000    0.03306851960000
Si       -1.46133439110000   -0.04586387560000    0.10066342770000
C        -1.93199965270000   -0.14370417760000    1.96306956260000
C        -1.65263081030000    1.16292123710000    2.70742623240000
C        -3.39370757380000   -0.53088353140000    2.18026514600000
C        -2.08238395900000    1.59183933950000   -0.71297067000000
C        -1.12495068920000    2.75470022870000   -0.44184152720000
C        -2.29773854630000    1.47890400020000   -2.22307534440000
C        -1.91550360460000   -1.61291845650000   -0.92381119640000
C        -1.24268749840000   -2.85874343970000   -0.34512259570000
C        -3.41190399900000   -1.86950278390000   -1.09582105770000
C         1.03721431480000    0.06754613980000   -1.12155864640000
C         2.38156262330000    0.07048813200000   -0.85270031200000
C         3.39290835980000    0.27063040740000   -1.87414503550000
C         4.56084140210000    0.87704942220000   -1.70765732660000
H         5.62759981070000   -0.89017765000000    1.76201771340000
H         4.99422944980000   -1.12640053660000    0.05935713680000
H         3.51801910860000    0.08816562450000    2.44654618510000
H         0.89090861440000   -0.22124408880000    2.06959035490000
H        -1.32003328260000   -0.92553111090000    2.42464252400000
H        -2.31914872960000    1.94760361390000    2.35760267330000
H        -0.62666677230000    1.49192304000000    2.56549616250000
H        -1.82259734770000    1.03157432570000    3.77564798690000
H        -4.05935554960000    0.14966847810000    1.65474945400000
H        -3.63950320250000   -0.49206094060000    3.24078014610000
H        -3.58737298500000   -1.54011087750000    1.83062143150000
H        -3.04987102180000    1.84813007050000   -0.26734605030000
H        -0.15040452410000    2.55438045350000   -0.88092376110000
H        -0.98744346410000    2.91989395700000    0.62205798780000
H        -1.51347176800000    3.67230251620000   -0.88150814710000
H        -1.35971405020000    1.26849605900000   -2.73021411380000
H        -2.68434410060000    2.41800556670000   -2.61692751400000
H        -3.00439872060000    0.69265502240000   -2.47115027990000
H        -1.49887638990000   -1.45941601220000   -1.92546804220000
H        -1.62143566480000   -3.07327498790000    0.65163928690000
H        -0.16613566830000   -2.72257526040000   -0.27978136470000
H        -1.44001127000000   -3.72453518210000   -0.97536902320000
H        -3.85738899740000   -2.20338712190000   -0.16353834310000
H        -3.57717855540000   -2.64773722120000   -1.83970257750000
H        -3.93808552240000   -0.97483307200000   -1.41698653890000
H         0.54585801580000    0.14874418800000   -2.07084116390000
H         3.09887873660000   -0.06203960970000   -2.86373975830000
H         4.87424413610000    1.25345942270000   -0.74928787000000
H         5.24369040730000    1.01893506050000   -2.52844079750000
$end

$rem
BASIS = 6-31G*
GUI = 2
METHOD = B3LYP
PRINT_ORBITALS false
MOLDEN_FORMAT false
--------------------------------------------------------------
 ----------------------------------------------------------------
             Standard Nuclear Orientation (Angstroms)
    I     Atom           X                Y                Z
 ----------------------------------------------------------------
    1      C      -4.7394465132    -1.6558516428     0.5327784311
    2      C      -3.5887117458    -1.7369843824    -0.1221998280
    3      C      -2.4977265272    -0.7824615543    -0.0569863447
    4      C      -1.1805396761    -1.1440005248    -0.1824169436
    5      N      -0.3630818006    -0.0698568375     0.0279622798
    6      Si      1.4087711058     0.0147631866    -0.0127797796
    7      C       2.0253038105    -1.7479973117    -0.4734510012
    8      C       1.7451524059    -2.1034884942    -1.9344523653
    9      C       3.5154224425    -1.9402374973    -0.1972952594
   10      C       1.8905558362     1.3184113033    -1.3537346233
   11      C       0.9051438363     1.3135247315    -2.5247915125
   12      C       1.9939593190     2.7438792503    -0.8088520960
   13      C       1.8532640601     0.5770439152     1.7754440278
   14      C       1.2840914533    -0.3936834785     2.8114810778
   15      C       3.3420716068     0.7966265561     2.0397782906
   16      C      -1.1789864116     0.9957463310     0.2882474070
   17      C      -2.4974088236     0.6236093871     0.2349344424
   18      C      -3.5923818394     1.5674253387     0.3632777183
   19      C      -4.7703033724     1.4829076126    -0.2407813733
   20      H      -5.4857622028    -2.4287397090     0.4569605588
   21      H      -4.9752464636    -0.8191284944     1.1672687476
   22      H      -3.3762422511    -2.6148566444    -0.7225951160
   23      H      -0.7746196743    -2.1170489074    -0.3714725700
   24      H       1.4867106500    -2.4674653886     0.1519199961
   25      H       2.3465492466    -1.4849803111    -2.5963576145
   26      H       0.6974638706    -1.9620092030    -2.1860887726
   27      H       2.0025908399    -3.1450176627    -2.1246648664
   28      H       4.1071490896    -1.1844790135    -0.7082685435
   29      H       3.8400868785    -2.9185690988    -0.5495381181
   30      H       3.7271173224    -1.8823325713     0.8657800682
   31      H       2.8768624617     1.0518231545    -1.7492437339
   32      H      -0.0902252231     1.5894687052    -2.1845609914
   33      H       0.8425734690     0.3352791246    -2.9908385750
   34      H       1.2167205844     2.0320237085    -3.2817119002
   35      H       1.0301858498     3.0849461971    -0.4398463692
   36      H       2.3061799921     3.4247650246    -1.5996794804
   37      H       2.7143168683     2.8140584449     0.0006274359
   38      H       1.3542690868     1.5401230998     1.9301701536
   39      H       1.7477460734    -1.3730545049     2.7173269738
   40      H       0.2107007965    -0.5100023294     2.6846839359
   41      H       1.4713407526    -0.0264550824     3.8193618130
   42      H       3.8726402758    -0.1500433625     2.0771901544
   43      H       3.4846896858     1.2947425991     2.9978308597
   44      H       3.8009164831     1.4074783116     1.2672696062
   45      H      -0.7663196948     1.9667912660     0.4778241690
   46      H      -3.3606112116     2.4399411859     0.9644590116
   47      H      -5.0257536052     0.6511384900    -0.8742504592
   48      H      -5.5200119952     2.2470989834    -0.1222557047
 ----------------------------------------------------------------
 Molecular Point Group                 C1    NOp =  1
 Largest Abelian Subgroup              C1    NOp =  1
 Nuclear Repulsion Energy =        1669.76811977 hartrees
 There are       76 alpha and       76 beta electrons
 Requested basis set is 6-31G(d)
 There are 135 shells and 347 basis functions

 Total QAlloc Memory Limit   4000 MB
 Mega-Array Size       188 MB
 MEM_STATIC part       192 MB
 A cutoff of  1.0D-08 yielded   5249 shell pairs
 There are     37597 function pairs
 Smallest overlap matrix eigenvalue = 5.89E-04

 Scale SEOQF with 1.000000e-02/1.000000e-01/1.000000e-01

 Standard Electronic Orientation quadrupole field applied
 Nucleus-field energy     =    -0.0000000013 hartrees
 Guess from superposition of atomic densities
 Warning:  Energy on first SCF cycle will be non-variational
 SAD guess density has 152.000000 electrons

 -----------------------------------------------------------------------
  General SCF calculation program by
  Eric Jon Sundstrom, Paul Horn, Yuezhi Mao, Dmitri Zuev, Alec White,
  David Stuck, Shaama M.S., Shane Yost, Joonho Lee, David Small,
  Daniel Levine, Susi Lehtola, Hugh Burton, Evgeny Epifanovsky,
  Bang C. Huynh
 -----------------------------------------------------------------------
 Exchange:     0.2000 Hartree-Fock + 0.0800 Slater + 0.7200 B88
 Correlation:  0.1900 VWN1RPA + 0.8100 LYP
 Using SG-1 standard quadrature grid
 A restricted SCF calculation will be
 performed using DIIS
 SCF converges when DIIS error is below 1.0e-05
 ---------------------------------------
  Cycle       Energy         DIIS error
 ---------------------------------------
    1   -1013.3525866248      4.25e-02  
    2   -1009.0635743160      5.23e-03  
    3   -1008.9829131618      5.72e-03  
    4   -1009.4990071923      8.58e-04  
    5   -1009.5077250857      4.42e-04  
    6   -1009.5105954470      9.73e-05  
    7   -1009.5107211774      2.92e-05  
    8   -1009.5107318261      9.83e-06  Convergence criterion met
 ---------------------------------------
 SCF time:   CPU 110.31s  wall 110.00s 
 SCF   energy in the final basis set =    -1009.5107318261
 Total energy in the final basis set =    -1009.5107318261
 
 --------------------------------------------------------------
 
                    Orbital Energies (a.u.)
 --------------------------------------------------------------
 
 Alpha MOs
 -- Occupied --
-66.1423 -14.3526 -10.1948 -10.1948 -10.1849 -10.1818 -10.1810 -10.1796
-10.1792 -10.1778 -10.1774 -10.1751 -10.1743 -10.1728 -10.1706 -10.1676
-10.1662 -10.1581 -10.1570  -5.2852  -3.6460  -3.6431  -3.6428  -0.9645
 -0.8054  -0.7940  -0.7847  -0.7815  -0.7650  -0.7198  -0.7068  -0.6920
 -0.6858  -0.6829  -0.6123  -0.6035  -0.5803  -0.5789  -0.5754  -0.5561
 -0.5165  -0.5018  -0.4830  -0.4645  -0.4612  -0.4518  -0.4480  -0.4421
 -0.4383  -0.4307  -0.4131  -0.4121  -0.4097  -0.4039  -0.3994  -0.3956
 -0.3900  -0.3870  -0.3852  -0.3814  -0.3791  -0.3499  -0.3483  -0.3455
 -0.3426  -0.3402  -0.3374  -0.3350  -0.3321  -0.3265  -0.2942  -0.2757
 -0.2719  -0.2673  -0.1967  -0.1950
 -- Virtual --
  0.0009   0.0213   0.0473   0.0668   0.0700   0.0747   0.0775   0.1047
  0.1095   0.1196   0.1246   0.1278   0.1325   0.1357   0.1400   0.1452
  0.1476   0.1525   0.1553   0.1678   0.1689   0.1716   0.1744   0.1771
  0.1808   0.1819   0.1906   0.2001   0.2072   0.2103   0.2157   0.2184
  0.2191   0.2236   0.2303   0.2330   0.2348   0.2477   0.2530   0.2577
  0.2692   0.2726   0.2834   0.2845   0.3028   0.3444   0.3528   0.3672
  0.3704   0.3907   0.4093   0.4138   0.4358   0.4443   0.4484   0.4613
  0.4892   0.5076   0.5145   0.5206   0.5265   0.5439   0.5473   0.5535
  0.5571   0.5707   0.5731   0.5794   0.5964   0.6033   0.6114   0.6137
  0.6180   0.6370   0.6383   0.6474   0.6594   0.6672   0.6702   0.6827
  0.6883   0.6930   0.7033   0.7096   0.7212   0.7362   0.7392   0.7428
  0.7530   0.7563   0.7740   0.7886   0.7998   0.8043   0.8150   0.8272
  0.8351   0.8431   0.8496   0.8593   0.8626   0.8646   0.8724   0.8753
  0.8822   0.8901   0.8918   0.8964   0.9018   0.9036   0.9118   0.9126
  0.9200   0.9268   0.9297   0.9338   0.9471   0.9529   0.9563   0.9594
  0.9630   0.9673   0.9731   0.9815   0.9895   1.0042   1.0072   1.0101
  1.0171   1.0201   1.0218   1.0267   1.0342   1.0448   1.0511   1.0553
  1.0592   1.0813   1.0916   1.1047   1.1151   1.1492   1.1555   1.1770
  1.1890   1.2531   1.2721   1.3005   1.3149   1.3250   1.3356   1.3626
  1.3855   1.4114   1.4300   1.4427   1.4592   1.4664   1.4801   1.4843
  1.4961   1.5013   1.5082   1.5281   1.5329   1.5544   1.5764   1.5920
  1.6099   1.6269   1.6375   1.6578   1.6822   1.7068   1.7153   1.7183
  1.7541   1.7657   1.7993   1.8143   1.8240   1.8649   1.8950   1.9159
  1.9222   1.9264   1.9290   1.9425   1.9546   1.9588   1.9699   2.0081
  2.0154   2.0271   2.0315   2.0364   2.0513   2.0617   2.0751   2.0974
  2.1106   2.1129   2.1177   2.1228   2.1420   2.1678   2.1715   2.2085
  2.2297   2.2398   2.2420   2.2500   2.2524   2.2629   2.2666   2.2721
  2.2836   2.2875   2.2927   2.3044   2.3270   2.3443   2.3585   2.3685
  2.4027   2.4079   2.4176   2.4345   2.4404   2.4635   2.4718   2.4856
  2.4865   2.5640   2.5774   2.5929   2.6015   2.6196   2.6582   2.7091
  2.7143   2.7163   2.7306   2.7759   2.7780   2.8037   2.8452   2.9006
  2.9742   3.0483   3.1625   3.1890   3.2984   4.0754   4.1492   4.1703
  4.1796   4.2013   4.2079   4.2155   4.2433   4.2812   4.3020   4.3187
  4.3307   4.3565   4.4675   4.4898   4.5089   4.5522   4.7337
 --------------------------------------------------------------
 
          Ground-State Mulliken Net Atomic Charges

     Atom                 Charge (a.u.)
  ----------------------------------------
      1 C                    -0.350603
      2 C                    -0.125911
      3 C                     0.048182
      4 C                    -0.053795
      5 N                    -0.510886
      6 Si                    0.902174
      7 C                    -0.291727
      8 C                    -0.464159
      9 C                    -0.462752
     10 C                    -0.292444
     11 C                    -0.458975
     12 C                    -0.461045
     13 C                    -0.283047
     14 C                    -0.460696
     15 C                    -0.464259
     16 C                    -0.054431
     17 C                     0.050293
     18 C                    -0.129163
     19 C                    -0.348048
     20 H                     0.129176
     21 H                     0.150502
     22 H                     0.116320
     23 H                     0.140921
     24 H                     0.148288
     25 H                     0.150571
     26 H                     0.160175
     27 H                     0.142955
     28 H                     0.148807
     29 H                     0.145583
     30 H                     0.154606
     31 H                     0.138217
     32 H                     0.165800
     33 H                     0.151363
     34 H                     0.137149
     35 H                     0.149417
     36 H                     0.143408
     37 H                     0.150426
     38 H                     0.146957
     39 H                     0.142540
     40 H                     0.173051
     41 H                     0.140479
     42 H                     0.149584
     43 H                     0.144357
     44 H                     0.148303
     45 H                     0.144147
     46 H                     0.116893
     47 H                     0.151462
     48 H                     0.129837
  ----------------------------------------
  Sum of atomic charges =     0.000000

 -----------------------------------------------------------------
                    Cartesian Multipole Moments
 -----------------------------------------------------------------
    Charge (ESU x 10^10)
                 0.0000
    Dipole Moment (Debye)
         X       3.2393      Y      -0.0511      Z      -0.0903
       Tot       3.2410
    Quadrupole Moments (Debye-Ang)
        XX    -129.4504     XY      -0.7413     YY    -121.8352
        XZ      -0.4887     YZ       2.9315     ZZ    -127.9284
    Octopole Moments (Debye-Ang^2)
       XXX      18.0118    XXY       0.0547    XYY       0.3415
       YYY      -5.6773    XXZ      -3.1209    XYZ      -7.5917
       YYZ      -1.0904    XZZ      12.0251    YZZ       3.5537
       ZZZ       1.6798
    Hexadecapole Moments (Debye-Ang^3)
      XXXX   -5509.9873   XXXY      -3.1049   XXYY   -1183.1893
      XYYY     -12.5977   YYYY   -1762.8285   XXXZ     -16.1751
      XXYZ      12.6457   XYYZ      -3.8249   YYYZ      22.4706
      XXZZ   -1181.4573   XYZZ       4.4228   YYZZ    -546.9692
      XZZZ       4.4797   YZZZ       6.9067   ZZZZ   -1484.8909
 -----------------------------------------------------------------
Archival summary:
1\1\nia2015.scinet.local\SP\ProcedureUnspecified\6-31G*\i111729\rhickman\TueFeb815:11:272022TueFeb815:11:272022\0\\#,ProcedureUnspecified,6-31G*,\\0,1\Si\N,1,1.77434\C,2,1.36612,1,129.161\H,3,1.07114,2,120.977,1,2.43638,0\C,2,1.3671,1,124.276,3,-179.85,0\H,5,1.07199,2,120.663,1,0.543174,0\C,5,1.37097,2,110.791,1,179.301,0\C,3,1.37165,2,110.689,1,179.949,0\C,8,1.45107,3,122.991,2,-174.976,0\H,9,1.08456,8,114.207,3,-28.0168,0\C,9,1.32656,8,126.141,3,147.796,0\H,11,1.07624,9,121.917,8,2.17011,0\H,11,1.07708,9,121.495,8,-177.686,0\C,7,1.45128,5,123.066,2,-174.898,0\H,14,1.08463,7,114.264,5,-28.7832,0\C,14,1.32647,7,126.035,5,146.946,0\H,16,1.07628,14,121.873,7,2.25116,0\H,16,1.07708,14,121.519,7,-177.636,0\C,1,1.92345,2,106.372,3,1.50572,0\H,19,1.0949,1,107.923,2,-47.0144,0\C,19,1.52764,1,112.625,2,-165.012,0\H,21,1.08549,19,111.135,1,65.3093,0\H,21,1.08738,19,111.002,1,-55.5179,0\H,21,1.08932,19,110.199,1,-175.197,0\C,19,1.5295,1,112.524,2,71.5802,0\H,25,1.08673,19,111.562,1,-53.2794,0\H,25,1.08736,19,110.362,1,67.492,0\H,25,1.0896,19,110.221,1,-173.467,0\C,1,1.92652,2,102.886,3,-119.279,0\H,29,1.09565,1,106.412,2,-59.1775,0\C,29,1.52795,1,115.299,2,-177.673,0\H,31,1.08586,29,110.902,1,-71.9142,0\H,31,1.08648,29,111.672,1,48.5425,0\H,31,1.08919,29,110.211,1,168.887,0\C,29,1.52959,1,110.955,2,56.8988,0\H,35,1.08709,29,110.874,1,-55.4593,0\H,35,1.08766,29,110.744,1,64.8271,0\H,35,1.08892,29,110.421,1,-175.485,0\C,1,1.93126,2,107.293,3,121.37,0\H,39,1.09558,1,108.119,2,-152.271,0\C,39,1.52956,1,113.491,2,89.0374,0\H,41,1.08586,39,111.755,1,57.6151,0\H,41,1.0869,39,110.698,1,-63.2615,0\H,41,1.08926,39,110.078,1,177.748,0\C,39,1.5305,1,111.623,2,-34.0915,0\H,45,1.08539,39,111.625,1,-57.8059,0\H,45,1.0875,39,110.433,1,62.4496,0\H,45,1.08915,39,110.21,1,-178.092,0\\\@

 Total job time:  111.07s(wall), 110.65s(cpu) 
 Tue Feb  8 15:11:27 2022

        *************************************************************
        *                                                           *
        *  Thank you very much for using Q-Chem.  Have a nice day.  *
        *                                                           *
        *************************************************************


