24
 energy: -39.387618388616 gnorm: 0.000050175819 xtb: 6.4.1 (23d549d)
C        -4.27113409060000    0.90851891310000    0.00326447640000
N        -3.34463834110000   -0.19481377550000   -0.04396696430000
C        -1.99589527580000    0.03229726620000   -0.01962741780000
C        -1.46959168810000    1.33423261970000    0.00044311060000
C        -0.11160284120000    1.55146991440000    0.00758562910000
C         0.80323314490000    0.49541213130000   -0.00208618200000
C         2.21898829230000    0.80160030930000    0.00839806690000
C         3.24850044140000   -0.03346145600000    0.00499402850000
F         3.22960103780000   -1.36546588440000   -0.00881024140000
F         4.52193064780000    0.37604556060000    0.01588682410000
C         0.28329405730000   -0.80109477610000   -0.01951144710000
C        -1.07371472700000   -1.02734649610000   -0.02719450640000
C        -3.85817974130000   -1.53826985000000    0.06032832390000
H        -4.10056901010000    1.59244719060000   -0.83236065820000
H        -4.18480543070000    1.47179063180000    0.93937570330000
H        -5.28830875950000    0.53227890140000   -0.07508369600000
H        -2.12488230650000    2.18932388360000    0.01442124200000
H         0.25565982670000    2.56788266030000    0.02407138770000
H         2.48435852040000    1.84934681780000    0.02072267120000
H         0.94681184240000   -1.65050027020000   -0.02670891830000
H        -1.41797669440000   -2.04800466210000   -0.04190793700000
H        -4.94491405120000   -1.51187736390000    0.07823051170000
H        -3.51353690240000   -2.02950447230000    0.97631626290000
H        -3.54852465920000   -2.14282282880000   -0.79721069770000
