24
 energy: -37.215669035861 gnorm: 0.000046793401 xtb: 6.4.1 (23d549d)
C         5.17961621990000    0.87953042070000   -0.03610416620000
C         4.56943763100000   -0.30281965810000   -0.01289977600000
C         3.14760449160000   -0.49785400290000    0.00151783670000
C         2.47557087620000   -1.69593086710000    0.01625786640000
C         1.08332563910000   -1.56046592330000    0.02333414830000
C         0.66616590080000   -0.25055910270000    0.01523125190000
C        -0.66616589660000    0.25055550720000    0.01521882750000
C        -1.08332445920000    1.56046161040000    0.02355434260000
C        -2.47556883450000    1.69592940760000    0.01628999380000
C        -3.14760127890000    0.49785577350000    0.00126808400000
C        -4.56943335570000    0.30282987640000   -0.01328605870000
C        -5.17962783260000   -0.87953410610000   -0.03537492040000
S        -2.02725231280000   -0.83441452740000   -0.00169622590000
S         2.02725301250000    0.83441488600000   -0.00132929450000
H         6.25164656660000    0.96312709110000   -0.04728781060000
H         4.61860226320000    1.79955629890000   -0.04488624520000
H         5.14837504620000   -1.21797215620000   -0.00509518080000
H         2.98098691150000   -2.64571382110000    0.02093266250000
H         0.39413395670000   -2.38650319540000    0.03422174170000
H        -0.39413426530000    2.38649601870000    0.03472582700000
H        -2.98098432470000    2.64571200950000    0.02108259310000
H        -5.14835720710000    1.21799826000000   -0.00651273440000
H        -4.61862377210000   -1.79957501070000   -0.04309731570000
H        -6.25165672110000   -0.96312421690000   -0.04668702830000
