
Running Job 1 of 1 fragments/B011/conf-2/spe_input.inp
qchem fragments/B011/conf-2/spe_input.inp_51230.0 /gpfs/fs0/scratch/a/aspuru/rhickman/descriptor_computation/qchem51230/ 0
/scinet/niagara/software/commercial/qc52/exe/qcprog.exe_s fragments/B011/conf-2/spe_input.inp_51230.0 /gpfs/fs0/scratch/a/aspuru/rhickman/descriptor_computation/qchem51230/
                  Welcome to Q-Chem
     A Quantum Leap Into The Future Of Chemistry


 Q-Chem 5.2, Q-Chem, Inc., Pleasanton, CA (2019)

 License issued to: SRG Alan Aspuru-Guzik, University of Toronto

 Yihan Shao,  Zhengting Gan,  E. Epifanovsky,  A. T. B. Gilbert,  M. Wormit,  
 J. Kussmann,  A. W. Lange,  A. Behn,  Jia Deng,  Xintian Feng,  D. Ghosh,  
 M. Goldey,  P. R. Horn,  L. D. Jacobson,  I. Kaliman,  T. Kus,  A. Landau,  
 Jie Liu,  E. I. Proynov,  R. M. Richard,  R. P. Steele,  E. J. Sundstrom,  
 H. L. Woodcock III,  P. M. Zimmerman,  D. Zuev,  B. Albrecht,  E. Alguire,  
 S. A. Baeppler,  D. Barton,  Z. Benda,  Y. A. Bernard,  E. J. Berquist,  
 K. B. Bravaya,  H. Burton,  D. Casanova,  Chun-Min Chang,  Yunqing Chen,  
 A. Chien,  K. D. Closser,  M. P. Coons,  S. Coriani,  S. Dasgupta,  
 A. L. Dempwolff,  M. Diedenhofen,  Hainam Do,  R. G. Edgar,  Po-Tung Fang,  
 S. Faraji,  S. Fatehi,  Qingguo Feng,  K. D. Fenk,  J. Fosso-Tande,  
 J. Gayvert,  Qinghui Ge,  A. Ghysels,  G. Gidofalvi,  J. Gomes,  
 J. Gonthier,  A. Gunina,  D. Hait,  M. W. D. Hanson-Heine,  
 P. H. P. Harbach,  A. W. Hauser,  M. F. Herbst,  J. E. Herr,  
 E. G. Hohenstein,  Z. C. Holden,  Kerwin Hui,  B. C. Huynh,  T.-C. Jagau,  
 Hyunjun Ji,  B. Kaduk,  K. Khistyaev,  Jaehoon Kim,  P. Klunzinger,  K. Koh,  
 D. Kosenkov,  L. Koulias,  T. Kowalczyk,  C. M. Krauter,  A. Kunitsa,  
 Ka Un Lao,  A. Laurent,  K. V. Lawler,  Joonho Lee,  D. Lefrancois,  
 S. Lehtola,  D. S. Levine,  Yi-Pei Li,  You-Sheng Lin,  Fenglai Liu,  
 E. Livshits,  A. Luenser,  P. Manohar,  E. Mansoor,  S. F. Manzer,  
 Shan-Ping Mao,  Yuezhi Mao,  N. Mardirossian,  A. V. Marenich,  
 T. Markovich,  L. A. Martinez-Martinez,  S. A. Maurer,  N. J. Mayhall,  
 S. C. McKenzie,  J.-M. Mewes,  P. Morgante,  A. F. Morrison,  
 J. W. Mullinax,  K. Nanda,  T. S. Nguyen-Beck,  R. Olivares-Amaya,  
 J. A. Parkhill,  Zheng Pei,  T. M. Perrine,  F. Plasser,  P. Pokhilko,  
 S. Prager,  A. Prociuk,  E. Ramos,  D. R. Rehn,  F. Rob,  M. Scheurer,  
 M. Schneider,  N. Sergueev,  S. M. Sharada,  S. Sharma,  D. W. Small,  
 T. Stauch,  T. Stein,  Yu-Chuan Su,  A. J. W. Thom,  A. Tkatchenko,  
 T. Tsuchimochi,  N. M. Tubman,  L. Vogt,  M. L. Vidal,  O. Vydrov,  
 M. A. Watson,  J. Wenzel,  M. de Wergifosse,  T. A. Wesolowski,  A. White,  
 J. Witte,  A. Yamada,  Jun Yang,  K. Yao,  S. Yeganeh,  S. R. Yost,  
 Zhi-Qiang You,  A. Zech,  Igor Ying Zhang,  Xing Zhang,  Yan Zhao,  
 Ying Zhu,  B. R. Brooks,  G. K. L. Chan,  C. J. Cramer,  M. S. Gordon,  
 W. J. Hehre,  A. Klamt,  M. W. Schmidt,  C. D. Sherrill,  D. G. Truhlar,  
 A. Aspuru-Guzik,  R. Baer,  A. T. Bell,  N. A. Besley,  Jeng-Da Chai,  
 A. E. DePrince, III,  R. A. DiStasio Jr.,  A. Dreuw,  B. D. Dunietz,  
 T. R. Furlani,  Chao-Ping Hsu,  Yousung Jung,  Jing Kong,  D. S. Lambrecht,  
 WanZhen Liang,  C. Ochsenfeld,  V. A. Rassolov,  L. V. Slipchenko,  
 J. E. Subotnik,  T. Van Voorhis,  J. M. Herbert,  A. I. Krylov,  
 P. M. W. Gill,  M. Head-Gordon

 Contributors to earlier versions of Q-Chem not listed above: 
 R. D. Adamson,  B. Austin,  J. Baker,  G. J. O. Beran,  K. Brandhorst,  
 S. T. Brown,  E. F. C. Byrd,  A. K. Chakraborty,  C.-L. Cheng,  
 Siu Hung Chien,  D. M. Chipman,  D. L. Crittenden,  H. Dachsel,  
 R. J. Doerksen,  A. D. Dutoi,  L. Fusti-Molnar,  W. A. Goddard III,  
 A. Golubeva-Zadorozhnaya,  S. R. Gwaltney,  G. Hawkins,  A. Heyden,  
 S. Hirata,  G. Kedziora,  F. J. Keil,  C. Kelley,  Jihan Kim,  R. A. King,  
 R. Z. Khaliullin,  P. P. Korambath,  W. Kurlancheek,  A. M. Lee,  M. S. Lee,  
 S. V. Levchenko,  Ching Yeh Lin,  D. Liotard,  R. C. Lochan,  I. Lotan,  
 P. E. Maslen,  N. Nair,  D. P. O'Neill,  D. Neuhauser,  E. Neuscamman,  
 C. M. Oana,  R. Olson,  B. Peters,  R. Peverati,  P. A. Pieniazek,  
 Y. M. Rhee,  J. Ritchie,  M. A. Rohrdanz,  E. Rosta,  N. J. Russ,  
 H. F. Schaefer III,  N. E. Schultz,  N. Shenvi,  A. C. Simmonett,  A. Sodt,  
 D. Stuck,  K. S. Thanthiriwatte,  V. Vanovschi,  Tao Wang,  A. Warshel,  
 C. F. Williams,  Q. Wu,  X. Xu,  W. Zhang

 Please cite Q-Chem as follows:
 Y. Shao et al., Mol. Phys. 113, 184-215 (2015)
 DOI: 10.1080/00268976.2014.952696

 Q-Chem 5.2.1 for Intel X86 EM64T Linux

 Parts of Q-Chem use Armadillo 8.300.2 (Tropical Shenanigans).
 http://arma.sourceforge.net/

 Q-Chem begins on Mon Feb  7 13:49:00 2022  

Host: 
0

     Scratch files written to /gpfs/fs0/scratch/a/aspuru/rhickman/descriptor_computation/qchem51230//
 Jul1719 |scratch|qcdevops|jenkins|workspace|build_RNUM -1
Processing $rem in /scinet/niagara/software/commercial/qc52/config/preferences:
	 MEM_TOTAL  4000 
NAlpha2: 118
NElect   118
Mult     1

Checking the input file for inconsistencies... 	...done.

--------------------------------------------------------------
User input:
--------------------------------------------------------------
$molecule
0 1
C         0.64233617380000   -4.60640585730000    0.08374238340000
C        -0.31420244450000   -3.70061954000000   -0.07828352020000
C        -0.15016984560000   -2.25105890700000   -0.05074076320000
C         1.09554089310000   -1.62822103010000   -0.04163758070000
C         1.22736399050000   -0.24118491700000   -0.01299836170000
C         2.57199294060000    0.31476337090000   -0.00787424870000
C         2.93633146320000    1.58911279670000    0.01562077870000
F         2.15902587080000    2.65996230030000    0.04009093790000
F         4.20736057330000    1.97536268900000    0.01773550690000
C         0.07588861420000    0.54901915980000    0.00732172790000
C        -1.16475669660000   -0.06562676450000   -0.00541534170000
C        -2.42684727570000    0.75140009090000    0.00560754060000
F        -2.21482041870000    2.06830443360000    0.10302902460000
F        -3.15558947140000    0.56409853350000   -1.11193566230000
F        -3.23399958280000    0.41761706280000    1.03027492790000
C        -1.28924773510000   -1.44637570470000   -0.03817710510000
H         0.42231516490000   -5.65929072040000    0.05254968360000
H         1.67206470490000   -4.34708455390000    0.26094426860000
H        -1.33283682120000   -4.03240520790000   -0.23343830890000
H         1.98902964170000   -2.23226819540000   -0.06581917440000
H         3.38687462990000   -0.39423925110000   -0.02563799920000
H         0.13583222360000    1.62401707070000    0.03074823850000
H        -2.27204008860000   -1.89374651960000   -0.04832595600000
$end

$rem
BASIS = 6-31G*
GUI = 2
METHOD = B3LYP
PRINT_ORBITALS false
MOLDEN_FORMAT false
--------------------------------------------------------------
 ----------------------------------------------------------------
             Standard Nuclear Orientation (Angstroms)
    I     Atom           X                Y                Z
 ----------------------------------------------------------------
    1      C      -1.3251753107    -4.3473288873     0.1012643532
    2      C      -1.8154276991    -3.1246964979    -0.0614931667
    3      C      -1.0595047907    -1.8768839116    -0.0406213760
    4      C       0.3325622243    -1.8327401133    -0.0381956078
    5      C       1.0330648470    -0.6282220247    -0.0158581391
    6      C       2.4869433005    -0.6862451303    -0.0174488964
    7      C       3.3514055681     0.3185831400    -0.0005323540
    8      F       3.0939028417     1.6165467458     0.0219232930
    9      F       4.6673898754     0.1372533762    -0.0041751355
   10      C       0.3182558186     0.5715071879     0.0048493651
   11      C      -1.0657988106     0.5326732460    -0.0012613566
   12      C      -1.8698775936     1.8030466066     0.0103941930
   13      F      -1.1255729638     2.9104691298     0.1015498540
   14      F      -2.6153635988     1.9352509182    -1.1039767092
   15      F      -2.7377860089     1.8403803517     1.0390780051
   16      C      -1.7570303180    -0.6692149317    -0.0277717131
   17      H      -1.9659012276    -5.2114712508     0.0752443814
   18      H      -0.2806368807    -4.5424741782     0.2740262644
   19      H      -2.8801226649    -2.9999491762    -0.2119373978
   20      H       0.8909943048    -2.7554167734    -0.0627162871
   21      H       2.9300816745    -1.6713126074    -0.0348524434
   22      H       0.8228287159     1.5227273616     0.0235287230
   23      H      -2.8368786471    -0.6640801732    -0.0328388169
 ----------------------------------------------------------------
 Molecular Point Group                 C1    NOp =  1
 Largest Abelian Subgroup              C1    NOp =  1
 Nuclear Repulsion Energy =        1079.68276711 hartrees
 There are       59 alpha and       59 beta electrons
 Requested basis set is 6-31G(d)
 There are 78 shells and 254 basis functions

 Total QAlloc Memory Limit   4000 MB
 Mega-Array Size       188 MB
 MEM_STATIC part       192 MB
 A cutoff of  1.0D-08 yielded   1839 shell pairs
 There are     20518 function pairs
 Smallest overlap matrix eigenvalue = 3.61E-04

 Scale SEOQF with 1.000000e-01/1.000000e-01/1.000000e+00

 Standard Electronic Orientation quadrupole field applied
 Nucleus-field energy     =     0.0000000348 hartrees
 Guess from superposition of atomic densities
 Warning:  Energy on first SCF cycle will be non-variational
 SAD guess density has 118.000000 electrons

 -----------------------------------------------------------------------
  General SCF calculation program by
  Eric Jon Sundstrom, Paul Horn, Yuezhi Mao, Dmitri Zuev, Alec White,
  David Stuck, Shaama M.S., Shane Yost, Joonho Lee, David Small,
  Daniel Levine, Susi Lehtola, Hugh Burton, Evgeny Epifanovsky,
  Bang C. Huynh
 -----------------------------------------------------------------------
 Exchange:     0.2000 Hartree-Fock + 0.0800 Slater + 0.7200 B88
 Correlation:  0.1900 VWN1RPA + 0.8100 LYP
 Using SG-1 standard quadrature grid
 A restricted SCF calculation will be
 performed using DIIS
 SCF converges when DIIS error is below 1.0e-05
 ---------------------------------------
  Cycle       Energy         DIIS error
 ---------------------------------------
    1    -925.9801459638      4.87e-02  
    2    -922.2803450978      6.11e-03  
    3    -922.0010786468      8.82e-03  
    4    -922.5364840640      1.37e-03  
    5    -922.5501828223      5.46e-04  
    6    -922.5524332129      1.85e-04  
    7    -922.5527073109      4.39e-05  
    8    -922.5527212682      1.74e-05  
    9    -922.5527235394      3.78e-06  Convergence criterion met
 ---------------------------------------
 SCF time:   CPU 37.89s  wall 38.00s 
 SCF   energy in the final basis set =     -922.5527235394
 Total energy in the final basis set =     -922.5527235394
 
 --------------------------------------------------------------
 
                    Orbital Energies (a.u.)
 --------------------------------------------------------------
 
 Alpha MOs
 -- Occupied --
-24.7553 -24.7442 -24.7252 -24.7171 -24.7162 -10.4284 -10.3684 -10.2231
-10.2175 -10.2137 -10.2133 -10.2072 -10.2068 -10.2060 -10.2028 -10.1930
 -1.3043  -1.2976  -1.2359  -1.2152  -1.2081  -0.8916  -0.8289  -0.8129
 -0.7676  -0.7444  -0.6997  -0.6598  -0.6454  -0.6242  -0.5992  -0.5837
 -0.5787  -0.5776  -0.5404  -0.5303  -0.5240  -0.5122  -0.4968  -0.4622
 -0.4553  -0.4541  -0.4512  -0.4512  -0.4433  -0.4286  -0.4206  -0.4181
 -0.4083  -0.4046  -0.3959  -0.3927  -0.3869  -0.3606  -0.3568  -0.3311
 -0.3016  -0.2471  -0.2333
 -- Virtual --
 -0.0497  -0.0405   0.0190   0.0742   0.0784   0.1015   0.1140   0.1368
  0.1431   0.1532   0.1552   0.1613   0.1916   0.1998   0.2100   0.2261
  0.2380   0.2574   0.2710   0.2957   0.3144   0.3397   0.3475   0.3983
  0.4204   0.4404   0.4476   0.4757   0.4804   0.5037   0.5099   0.5130
  0.5238   0.5338   0.5430   0.5595   0.5639   0.5687   0.5758   0.5803
  0.5875   0.5977   0.6055   0.6194   0.6328   0.6525   0.6677   0.6882
  0.7218   0.7459   0.7542   0.7692   0.7802   0.8064   0.8096   0.8194
  0.8455   0.8712   0.8836   0.9028   0.9188   0.9395   0.9577   0.9751
  0.9948   1.0247   1.0599   1.0744   1.0824   1.0936   1.0959   1.1083
  1.1251   1.1415   1.1524   1.1676   1.1884   1.2015   1.2179   1.2300
  1.2364   1.2521   1.2808   1.3058   1.3287   1.3320   1.3437   1.3592
  1.3662   1.3841   1.3907   1.3940   1.3964   1.4417   1.4469   1.4534
  1.4690   1.4747   1.4978   1.5054   1.5122   1.5681   1.5949   1.6232
  1.6394   1.6642   1.6705   1.6903   1.7310   1.7647   1.7728   1.7750
  1.7836   1.8096   1.8191   1.8271   1.8363   1.8619   1.8637   1.8833
  1.8836   1.8949   1.9348   1.9515   1.9678   1.9753   1.9806   1.9937
  2.0066   2.0147   2.0210   2.0211   2.0389   2.0579   2.0940   2.0975
  2.0994   2.1268   2.1321   2.1478   2.1744   2.2112   2.2156   2.2249
  2.2443   2.2685   2.2857   2.3163   2.3347   2.3681   2.4074   2.4336
  2.4611   2.4925   2.5199   2.5246   2.5919   2.6109   2.6202   2.6489
  2.6800   2.6900   2.7321   2.7440   2.7642   2.8291   2.8690   2.8809
  2.9235   2.9849   3.0068   3.0457   3.0477   3.0546   3.1204   3.1449
  3.1829   3.3106   3.4663   4.0661   4.0781   4.0878   4.1147   4.1372
  4.2240   4.2417   4.2926   4.3267   4.4788   4.5191   4.7129   4.8213
  4.8447   5.3086   5.6685
 --------------------------------------------------------------
 
          Ground-State Mulliken Net Atomic Charges

     Atom                 Charge (a.u.)
  ----------------------------------------
      1 C                    -0.349147
      2 C                    -0.110214
      3 C                     0.173416
      4 C                    -0.246852
      5 C                     0.196521
      6 C                    -0.300152
      7 C                     0.552053
      8 F                    -0.227811
      9 F                    -0.242854
     10 C                    -0.233873
     11 C                    -0.005648
     12 C                     0.780122
     13 F                    -0.264257
     14 F                    -0.266340
     15 F                    -0.267284
     16 C                    -0.231687
     17 H                     0.151656
     18 H                     0.146096
     19 H                     0.135595
     20 H                     0.133046
     21 H                     0.162875
     22 H                     0.162119
     23 H                     0.152618
  ----------------------------------------
  Sum of atomic charges =     0.000000

 -----------------------------------------------------------------
                    Cartesian Multipole Moments
 -----------------------------------------------------------------
    Charge (ESU x 10^10)
                 0.0000
    Dipole Moment (Debye)
         X       0.8151      Y      -2.8815      Z      -0.0169
       Tot       2.9946
    Quadrupole Moments (Debye-Ang)
        XX     -87.5697     XY       2.8659     YY     -83.2475
        XZ       0.3442     YZ      -0.0861     ZZ     -90.0723
    Octopole Moments (Debye-Ang^2)
       XXX      -7.7091    XXY      -2.6126    XYY       8.8798
       YYY      25.3509    XXZ      -1.3065    XYZ      -1.1829
       YYZ       1.5035    XZZ       9.9070    YZZ      28.3207
       ZZZ       0.7089
    Hexadecapole Moments (Debye-Ang^3)
      XXXX   -2643.6326   XXXY     -22.7284   XXYY    -762.4634
      XYYY     -16.5830   YYYY   -2021.7375   XXXZ       4.1030
      XXYZ       4.2280   XYYZ       2.3494   YYYZ      -8.2882
      XXZZ    -459.9146   XYZZ     -19.8391   YYZZ    -410.9354
      XZZZ      -0.0716   YZZZ       1.5478   ZZZZ    -144.9420
 -----------------------------------------------------------------
Archival summary:
1\1\nia1977.scinet.local\SP\ProcedureUnspecified\6-31G*\5117\rhickman\MonFeb713:49:392022MonFeb713:49:392022\0\\#,ProcedureUnspecified,6-31G*,\\0,1\F\C,1,1.33742\F,2,1.34642,1,106.481\F,2,1.34724,1,106.444,3,112.561,0\C,2,1.5035,1,113.737,3,-123.798,0\C,5,1.38461,2,120.721,1,-3.51618,0\H,6,1.07692,5,119.551,2,0.332144,0\C,5,1.38674,2,117.767,1,176.93,0\H,8,1.07987,5,119.631,2,-0.388527,0\C,8,1.39469,5,120.09,2,179.95,0\C,10,1.39277,8,118.191,5,-0.563948,0\H,11,1.07879,10,119.356,8,-179.102,0\C,11,1.39358,10,121.994,8,0.368153,0\C,13,1.45504,11,117.89,10,-179.899,0\H,14,1.08029,13,116.504,11,-0.072044,0\C,14,1.32562,13,128.416,11,179.911,0\F,16,1.32345,14,128.079,13,0.00237006,0\F,16,1.32842,14,122.855,13,180,0\C,10,1.45907,8,118.787,5,179.685,0\H,19,1.08248,10,114.394,8,8.5548,0\C,19,1.32728,10,126.489,8,-170.46,0\H,21,1.07608,19,121.12,10,179.639,0\H,21,1.07656,19,123.027,10,0.185569,0\\\@

 Total job time:  38.21s(wall), 38.09s(cpu) 
 Mon Feb  7 13:49:39 2022

        *************************************************************
        *                                                           *
        *  Thank you very much for using Q-Chem.  Have a nice day.  *
        *                                                           *
        *************************************************************


