
Running Job 1 of 1 tidas/B033/conf-5/spe_input.inp
qchem tidas/B033/conf-5/spe_input.inp_246479.0 /home/a/aspuru/seifridm/acdc_laser/descriptor_computation/qchem246479/ 0
/gpfs/fs1/scinet/niagara/software/commercial/qc54/exe/qcprog.exe_s tidas/B033/conf-5/spe_input.inp_246479.0 /home/a/aspuru/seifridm/acdc_laser/descriptor_computation/qchem246479/
                  Welcome to Q-Chem
     A Quantum Leap Into The Future Of Chemistry


 Q-Chem 5.4, Q-Chem, Inc., Pleasanton, CA (2021)

 License issued to: SRG Alan Aspuru-Guzik, University of Toronto

 E. Epifanovsky,  A. T. B. Gilbert,  Xintian Feng,  Joonho Lee,  Yuezhi Mao,  
 N. Mardirossian,  P. Pokhilko,  A. White,  M. Wormit,  M. P. Coons,  
 A. L. Dempwolff,  Zhengting Gan,  D. Hait,  P. R. Horn,  L. D. Jacobson,  
 I. Kaliman,  J. Kussmann,  A. W. Lange,  Ka Un Lao,  D. S. Levine,  Jie Liu,  
 S. C. McKenzie,  A. F. Morrison,  K. Nanda,  F. Plasser,  D. R. Rehn,  
 M. L. Vidal,  Zhi-Qiang You,  Ying Zhu,  B. Alam,  B. Albrecht,  
 A. Aldossary,  E. Alguire,  J. H. Andersen,  D. Barton,  K. Begam,  A. Behn,  
 Y. A. Bernard,  E. J. Berquist,  H. Burton,  A. Carreras,  K. Carter-Fenk,  
 Romit Chakraborty,  A. D. Chien,  K. D. Closser,  V. Cofer-Shabica,  
 S. Dasgupta,  Jia Deng,  M. de Wergifosse,  M. Diedenhofen,  Hainam Do,  
 S. Ehlert,  Po-Tung Fang,  S. Fatehi,  Qingguo Feng,  T. Friedhoff,  
 J. Gayvert,  Qinghui Ge,  G. Gidofalvi,  M. Goldey,  J. Gomes,  
 C. Gonzalez-Espinoza,  S. Gulania,  A. Gunina,  M. W. D. Hanson-Heine,  
 P. H. P. Harbach,  A. W. Hauser,  M. F. Herbst,  M. Hernandez Vera,  
 M. Hodecker,  Z. C. Holden,  S. Houck,  Xunkun Huang,  Kerwin Hui,  
 B. C. Huynh,  M. Ivanov,  Hyunjun Ji,  Hanjie Jiang,  B. Kaduk,  S. Kaehler,  
 K. Khistyaev,  Jaehoon Kim,  P. Klunzinger,  Z. Koczor-Benda,  
 Joong Hoon Koh,  D. Kosenkov,  L. Koulias,  T. Kowalczyk,  C. M. Krauter,  
 K. Kue,  A. Kunitsa,  T. Kus,  A. Landau,  K. V. Lawler,  D. Lefrancois,  
 S. Lehtola,  Rain Li,  Yi-Pei Li,  Jiashu Liang,  M. Liebenthal,  
 Hung-Hsuan Lin,  You-Sheng Lin,  Fenglai Liu,  Kuan-Yu Liu,  
 M. Loipersberger,  A. Luenser,  A. Manjanath,  P. Manohar,  E. Mansoor,  
 S. F. Manzer,  Shan-Ping Mao,  A. V. Marenich,  T. Markovich,  S. Mason,  
 S. A. Maurer,  P. F. McLaughlin,  M. F. S. J. Menger,  J.-M. Mewes,  
 S. A. Mewes,  P. Morgante,  J. W. Mullinax,  K. J. Oosterbaan,  G. Paran,  
 Alexander C. Paul,  Suranjan K. Paul,  F. Pavosevic,  Zheng Pei,  S. Prager,  
 E. I. Proynov,  E. Ramos,  B. Rana,  A. E. Rask,  A. Rettig,  R. M. Richard,  
 F. Rob,  E. Rossomme,  T. Scheele,  M. Scheurer,  M. Schneider,  
 N. Sergueev,  S. M. Sharada,  W. Skomorowski,  D. W. Small,  C. J. Stein,  
 Yu-Chuan Su,  E. J. Sundstrom,  Zhen Tao,  J. Thirman,  T. Tsuchimochi,  
 N. M. Tubman,  S. P. Veccham,  O. Vydrov,  J. Wenzel,  J. Witte,  A. Yamada,  
 Kun Yao,  S. Yeganeh,  S. R. Yost,  A. Zech,  Igor Ying Zhang,  Xing Zhang,  
 Yu Zhang,  D. Zuev,  A. Aspuru-Guzik,  A. T. Bell,  N. A. Besley,  
 K. B. Bravaya,  B. R. Brooks,  D. Casanova,  Jeng-Da Chai,  S. Coriani,  
 C. J. Cramer,  A. E. DePrince, III,  R. A. DiStasio Jr.,  A. Dreuw,  
 B. D. Dunietz,  T. R. Furlani,  W. A. Goddard III,  S. Grimme,  
 S. Hammes-Schiffer,  T. Head-Gordon,  W. J. Hehre,  Chao-Ping Hsu,  
 T.-C. Jagau,  Yousung Jung,  A. Klamt,  Jing Kong,  D. S. Lambrecht,  
 WanZhen Liang,  N. J. Mayhall,  C. W. McCurdy,  J. B. Neaton,  T. Neudecker,  
 C. Ochsenfeld,  J. A. Parkhill,  R. Peverati,  V. A. Rassolov,  Yihan Shao,  
 L. V. Slipchenko,  R. P. Steele,  J. E. Subotnik,  A. J. W. Thom,  
 A. Tkatchenko,  D. G. Truhlar,  T. Van Voorhis,  T. A. Wesolowski,  
 K. B. Whaley,  H. L. Woodcock III,  P. M. Zimmerman,  S. Faraji,  
 P. M. W. Gill,  M. Head-Gordon,  J. M. Herbert,  A. I. Krylov

 Additional authors since Version 5.4.0: 
 Chandrima Chakravarty,  L. Cunha,  R. Kang,  Yongbin Kim,  S. Kotaru,  
 Shaozhi Li,  Xiangyuan Li,  F. Matz,  A. Molle,  V. Parravicini,  
 Haisheng Ren,  Hengyuan Shen,  Yingli Su,  Hung-Yi Tsai,  C. Utku,  
 Fang Wang,  Jeff Yang,  F. Zeller

 Contributors to earlier versions of Q-Chem not listed above: 
 R. D. Adamson,  B. Austin,  R. Baer,  J. Baker,  G. J. O. Beran,  
 K. Brandhorst,  S. T. Brown,  E. F. C. Byrd,  Arup K. Chakraborty,  
 G. K. L. Chan,  Chun-Min Chang,  Yunqing Chen,  C.-L. Cheng,  
 Siu Hung Chien,  D. M. Chipman,  D. L. Crittenden,  H. Dachsel,  
 R. J. Doerksen,  A. D. Dutoi,  R. G. Edgar,  J. Fosso-Tande,  
 L. Fusti-Molnar,  D. Ghosh,  A. Ghysels,  A. Golubeva-Zadorozhnaya,  
 J. Gonthier,  M. S. Gordon,  S. R. Gwaltney,  G. Hawkins,  J. E. Herr,  
 A. Heyden,  S. Hirata,  E. G. Hohenstein,  G. Kedziora,  F. J. Keil,  
 C. Kelley,  Jihan Kim,  R. A. King,  R. Z. Khaliullin,  P. P. Korambath,  
 W. Kurlancheek,  A. Laurent,  A. M. Lee,  M. S. Lee,  S. V. Levchenko,  
 Ching Yeh Lin,  D. Liotard,  E. Livshits,  R. C. Lochan,  I. Lotan,  
 L. A. Martinez-Martinez,  P. E. Maslen,  N. Nair,  D. P. O'Neill,  
 D. Neuhauser,  E. Neuscamman,  C. M. Oana,  R. Olivares-Amaya,  R. Olson,  
 T. M. Perrine,  B. Peters,  P. A. Pieniazek,  A. Prociuk,  Y. M. Rhee,  
 J. Ritchie,  M. A. Rohrdanz,  E. Rosta,  N. J. Russ,  H. F. Schaefer III,  
 M. W. Schmidt,  N. E. Schultz,  S. Sharma,  N. Shenvi,  C. D. Sherrill,  
 A. C. Simmonett,  A. Sodt,  T. Stein,  D. Stuck,  K. S. Thanthiriwatte,  
 V. Vanovschi,  L. Vogt,  Tao Wang,  A. Warshel,  M. A. Watson,  
 C. F. Williams,  Q. Wu,  X. Xu,  Jun Yang,  W. Zhang,  Yan Zhao

   Please cite Q-Chem as follows:
  "Software for the frontiers of quantum chemistry:
   An overview of developments in the Q-Chem 5 package"
   J. Chem. Phys. 155, 084801 (2021)
   https://doi.org/10.1063/5.0055522 (open access)

 Q-Chem 5.4.2 for Intel X86 EM64T Linux

 Parts of Q-Chem use Armadillo 9.900.5 (Nocturnal Misbehaviour).
 http://arma.sourceforge.net/

 Q-Chem begins on Fri Aug 12 12:44:28 2022  

 Host: 
0

     Scratch files written to /home/a/aspuru/seifridm/acdc_laser/descriptor_computation/qchem246479//
 Dec1321 |scratch|qcdevops|jenkins|workspace|build_RNUM 6959   
 Processing $rem in /gpfs/fs1/scinet/niagara/software/commercial/qc54/config/preferences:
 Processing $rem in /home/a/aspuru/seifridm/.qchemrc:

 Checking the input file for inconsistencies... 	...done.

--------------------------------------------------------------
User input:
--------------------------------------------------------------
$molecule
0 1
C           -3.80028785450000       -1.13641708540000       -0.62427732760000
C           -2.49405084960000       -1.10497811340000       -0.84998607660000
C           -1.56938417200000       -0.10319432820000       -0.32159384110000
C           -1.98596588500000        1.19660825230000       -0.05114054540000
C           -1.08196431620000        2.13359742980000        0.41530694420000
Cl          -1.62135661690000        3.73890086180000        0.76222756210000
C            0.24954305280000        1.81010836590000        0.59783480250000
C            0.69359141070000        0.52100768470000        0.31404516710000
C            2.10524998110000        0.19884651810000        0.51531810900000
C            2.84881973810000       -0.55274280510000       -0.28005970920000
F            2.51686810200000       -1.09420702230000       -1.43643370470000
F            4.13009859960000       -0.82206144020000       -0.02666256530000
C           -0.22137471510000       -0.44480594120000       -0.12423542410000
O            0.21817982720000       -1.72460615520000       -0.34781748170000
C           -0.17324551470000       -2.68140230480000        0.62931983800000
C            0.25566355920000       -4.05293080450000        0.13845591210000
H           -4.42626085480000       -1.89941903070000       -1.05365744030000
H           -4.29261853770000       -0.41591820760000        0.00716148610000
H           -2.02838165080000       -1.86586906270000       -1.46321740220000
H           -3.01224496650000        1.47778704070000       -0.22376630160000
H            0.94781541510000        2.55480672450000        0.94575831260000
H            2.59448072690000        0.62141891260000        1.38006802260000
H           -1.26009919510000       -2.64598120600000        0.78491947860000
H            0.31806530040000       -2.44350547270000        1.58512736330000
H           -0.24493636000000       -4.28709135250000       -0.79686461160000
H            0.00291784740000       -4.80619862980000        0.87904384240000
H            1.32809218960000       -4.06415101450000       -0.03415268960000
$end

$rem
BASIS = 6-31G*
GUI = 2
METHOD = B3LYP
PRINT_ORBITALS false
MOLDEN_FORMAT false
$end
--------------------------------------------------------------
 ----------------------------------------------------------------
             Standard Nuclear Orientation (Angstroms)
    I     Atom           X                Y                Z
 ----------------------------------------------------------------
    1      C       1.6801056834    -3.5423209911     0.3940581572
    2      C       0.8031379629    -2.5805598731     0.6472994067
    3      C       0.9695082949    -1.1714001722     0.2946417518
    4      C       2.2302407878    -0.5878556025     0.2158929514
    5      C       2.3567982559     0.7559210773    -0.0857496481
    6      Cl      3.9318571780     1.4596809516    -0.1962417712
    7      C       1.2428113586     1.5487171952    -0.2891727920
    8      C      -0.0298432516     0.9910481428    -0.1950901757
    9      C      -1.1948514646     1.8462390481    -0.4152785337
   10      C      -2.3249504661     1.8069136308     0.2715534154
   11      F      -2.6139583489     1.0685685677     1.3260187852
   12      F      -3.3584038055     2.6066047585     0.0053083099
   13      C      -0.1673977944    -0.3766660784     0.0741409605
   14      O      -1.4242384629    -0.9245241817     0.1100401597
   15      C      -1.7666379003    -1.7345534749    -1.0080319226
   16      C      -3.1101468432    -2.3820149930    -0.7220631900
   17      H       1.4981152402    -4.5607538603     0.6907994864
   18      H       2.6023251203    -3.3565746485    -0.1305681063
   19      H      -0.1290092497    -2.8106791843     1.1473015815
   20      H       3.1090698233    -1.1815329706     0.4090680654
   21      H       1.3547144695     2.5991164255    -0.5067730147
   22      H      -1.1276917365     2.5885012804    -1.1964589954
   23      H      -0.9949515579    -2.4977464622    -1.1776004278
   24      H      -1.8273962202    -1.1024709867    -1.9071033323
   25      H      -3.0383739578    -3.0161259623     0.1571454627
   26      H      -3.4197904282    -2.9820335689    -1.5728639028
   27      H      -3.8560641752    -1.6154501746    -0.5323041251
 ----------------------------------------------------------------
 Molecular Point Group                 C1    NOp =  1
 Largest Abelian Subgroup              C1    NOp =  1
 Nuclear Repulsion Energy =        1195.24676538 hartrees
 There are       63 alpha and       63 beta electrons
 Requested basis set is 6-31G(d)
 There are 87 shells and 266 basis functions

 Total QAlloc Memory Limit   8000 MB
 Mega-Array Size       188 MB
 MEM_STATIC part       192 MB
 A cutoff of  1.0D-08 yielded   2413 shell pairs
 There are     23880 function pairs
 Smallest overlap matrix eigenvalue = 3.11E-04

 Scale SEOQF with 1.000000e-01/1.000000e-01/1.000000e-01

 Standard Electronic Orientation quadrupole field applied
 Nucleus-field energy     =     0.0000000524 hartrees
 Guess from superposition of atomic densities
 Warning:  Energy on first SCF cycle will be non-variational
 SAD guess density has 126.000000 electrons

 -----------------------------------------------------------------------
  General SCF calculation program by
  Eric Jon Sundstrom, Paul Horn, Yuezhi Mao, Dmitri Zuev, Alec White,
  David Stuck, Shaama M.S., Shane Yost, Joonho Lee, David Small,
  Daniel Levine, Susi Lehtola, Hugh Burton, Evgeny Epifanovsky,
  Bang C. Huynh
 -----------------------------------------------------------------------
 Exchange:     0.2000 Hartree-Fock + 0.0800 Slater + 0.7200 B88
 Correlation:  0.1900 VWN1RPA + 0.8100 LYP
 Using SG-1 standard quadrature grid
 A restricted SCF calculation will be
 performed using DIIS
 SCF converges when DIIS error is below 1.0e-05
 ---------------------------------------
  Cycle       Energy         DIIS error
 ---------------------------------------
    1   -1202.4237218003      4.80e-02  
    2   -1198.7080717993      5.19e-03  
    3   -1198.5620112427      6.64e-03  
    4   -1198.9281689752      1.22e-03  
    5   -1198.9406136552      4.06e-04  
    6   -1198.9418069596      1.85e-04  
    7   -1198.9420998660      4.59e-05  
    8   -1198.9421173488      1.52e-05  
    9   -1198.9421197925      4.96e-06  Convergence criterion met
 ---------------------------------------
 SCF time:   CPU 66.95s  wall 70.00s 
 SCF   energy in the final basis set =    -1198.9421197925
 Total energy in the final basis set =    -1198.9421197925
 
 --------------------------------------------------------------
 
                    Orbital Energies (a.u.)
 --------------------------------------------------------------
 
 Alpha MOs
 -- Occupied --
******** -24.7368 -24.7325 -19.1704 -10.3574 -10.2508 -10.2500 -10.2420
-10.2147 -10.2082 -10.2034 -10.2028 -10.2019 -10.1985 -10.1894 -10.1821
 -9.4658  -7.2296  -7.2201  -7.2197  -1.2826  -1.2211  -1.0639  -0.9005
 -0.8521  -0.8224  -0.7813  -0.7736  -0.7392  -0.7173  -0.6541  -0.6426
 -0.6241  -0.5972  -0.5760  -0.5631  -0.5397  -0.5268  -0.5154  -0.5003
 -0.4798  -0.4694  -0.4620  -0.4530  -0.4395  -0.4357  -0.4328  -0.4284
 -0.4122  -0.4067  -0.3965  -0.3926  -0.3864  -0.3714  -0.3617  -0.3464
 -0.3354  -0.3149  -0.3088  -0.2826  -0.2711  -0.2332  -0.2280
 -- Virtual --
 -0.0417  -0.0205   0.0251   0.0403   0.0592   0.0947   0.1087   0.1175
  0.1277   0.1287   0.1482   0.1530   0.1557   0.1643   0.1746   0.1771
  0.1810   0.1928   0.1959   0.2150   0.2324   0.2419   0.2763   0.2937
  0.3062   0.3252   0.3401   0.3762   0.3937   0.4029   0.4112   0.4199
  0.4425   0.4531   0.4803   0.4844   0.4959   0.5087   0.5224   0.5348
  0.5384   0.5407   0.5442   0.5547   0.5641   0.5758   0.5822   0.5858
  0.5931   0.6004   0.6102   0.6229   0.6298   0.6372   0.6566   0.6719
  0.6767   0.6935   0.7148   0.7197   0.7654   0.7749   0.7862   0.8042
  0.8268   0.8332   0.8407   0.8495   0.8586   0.8612   0.8663   0.8737
  0.8940   0.8991   0.9089   0.9245   0.9287   0.9313   0.9481   0.9647
  0.9728   0.9850   0.9913   1.0035   1.0087   1.0248   1.0491   1.0946
  1.0983   1.1150   1.1203   1.1545   1.1601   1.1879   1.1933   1.2088
  1.2266   1.2422   1.2534   1.2901   1.3050   1.3337   1.3543   1.3608
  1.3686   1.4027   1.4090   1.4176   1.4472   1.4565   1.4584   1.4912
  1.5014   1.5190   1.5270   1.5471   1.5720   1.6091   1.6479   1.6659
  1.6804   1.6926   1.7263   1.7657   1.7892   1.7904   1.8151   1.8245
  1.8455   1.8561   1.8701   1.8727   1.9101   1.9291   1.9336   1.9543
  1.9623   1.9893   1.9919   1.9962   2.0082   2.0281   2.0442   2.0738
  2.0853   2.0924   2.1307   2.1465   2.1606   2.1625   2.1793   2.2024
  2.2259   2.2507   2.2668   2.2805   2.2975   2.3142   2.3309   2.3451
  2.3841   2.4023   2.4395   2.4528   2.4997   2.5266   2.5294   2.5910
  2.6042   2.6135   2.6393   2.6604   2.6973   2.7070   2.7652   2.7919
  2.8399   2.8580   2.8903   2.9387   2.9795   3.0226   3.0972   3.1260
  3.1791   3.3029   3.4416   4.0656   4.0745   4.1085   4.1132   4.1340
  4.1719   4.2248   4.2463   4.2866   4.3908   4.4321   4.4737   4.5070
  4.7545   4.8985   5.2956
 --------------------------------------------------------------
 
          Ground-State Mulliken Net Atomic Charges

     Atom                 Charge (a.u.)
  ----------------------------------------
      1 C                    -0.344896
      2 C                    -0.127647
      3 C                     0.151895
      4 C                    -0.205256
      5 C                    -0.061304
      6 Cl                   -0.017249
      7 C                    -0.204609
      8 C                     0.153714
      9 C                    -0.331808
     10 C                     0.579587
     11 F                    -0.221907
     12 F                    -0.250799
     13 C                     0.223840
     14 O                    -0.534599
     15 C                    -0.037976
     16 C                    -0.456932
     17 H                     0.149352
     18 H                     0.148251
     19 H                     0.155513
     20 H                     0.152375
     21 H                     0.153094
     22 H                     0.169041
     23 H                     0.145759
     24 H                     0.136536
     25 H                     0.160391
     26 H                     0.151025
     27 H                     0.164607
  ----------------------------------------
  Sum of atomic charges =     0.000000

 -----------------------------------------------------------------
                    Cartesian Multipole Moments
 -----------------------------------------------------------------
    Charge (ESU x 10^10)
                 0.0000
    Dipole Moment (Debye)
         X      -0.7661      Y      -1.6070      Z      -1.3359
       Tot       2.2258
    Quadrupole Moments (Debye-Ang)
        XX    -103.1138     XY      -0.4649     YY     -89.9837
        XZ       2.8463     YZ      -0.9442     ZZ     -98.3012
    Octopole Moments (Debye-Ang^2)
       XXX     -48.0273    XXY     -18.1416    XYY      -9.7660
       YYY      11.8454    XXZ      -2.3896    XYZ      -1.8860
       YYZ       0.2817    XZZ     -19.8076    YZZ      10.2952
       ZZZ       6.7841
    Hexadecapole Moments (Debye-Ang^3)
      XXXX   -3284.5628   XXXY     -57.7964   XXYY    -888.1646
      XYYY     -54.5048   YYYY   -2001.8919   XXXZ     -14.7507
      XXYZ      13.5923   XYYZ      -7.5495   YYYZ     -19.1890
      XXZZ    -592.8308   XYZZ     -11.2895   YYZZ    -392.8994
      XZZZ     -28.6181   YZZZ      15.1491   ZZZZ    -278.2171
 -----------------------------------------------------------------
 Total job time:  71.01s(wall), 67.44s(cpu) 
 Fri Aug 12 12:45:39 2022

        *************************************************************
        *                                                           *
        *  Thank you very much for using Q-Chem.  Have a nice day.  *
        *                                                           *
        *************************************************************


