
Running Job 1 of 1 fragments/A023/conf-2/spe_input.inp
qchem fragments/A023/conf-2/spe_input.inp_163665.0 /gpfs/fs0/scratch/a/aspuru/rhickman/descriptor_computation/qchem163665/ 0
/scinet/niagara/software/commercial/qc52/exe/qcprog.exe_s fragments/A023/conf-2/spe_input.inp_163665.0 /gpfs/fs0/scratch/a/aspuru/rhickman/descriptor_computation/qchem163665/
                  Welcome to Q-Chem
     A Quantum Leap Into The Future Of Chemistry


 Q-Chem 5.2, Q-Chem, Inc., Pleasanton, CA (2019)

 License issued to: SRG Alan Aspuru-Guzik, University of Toronto

 Yihan Shao,  Zhengting Gan,  E. Epifanovsky,  A. T. B. Gilbert,  M. Wormit,  
 J. Kussmann,  A. W. Lange,  A. Behn,  Jia Deng,  Xintian Feng,  D. Ghosh,  
 M. Goldey,  P. R. Horn,  L. D. Jacobson,  I. Kaliman,  T. Kus,  A. Landau,  
 Jie Liu,  E. I. Proynov,  R. M. Richard,  R. P. Steele,  E. J. Sundstrom,  
 H. L. Woodcock III,  P. M. Zimmerman,  D. Zuev,  B. Albrecht,  E. Alguire,  
 S. A. Baeppler,  D. Barton,  Z. Benda,  Y. A. Bernard,  E. J. Berquist,  
 K. B. Bravaya,  H. Burton,  D. Casanova,  Chun-Min Chang,  Yunqing Chen,  
 A. Chien,  K. D. Closser,  M. P. Coons,  S. Coriani,  S. Dasgupta,  
 A. L. Dempwolff,  M. Diedenhofen,  Hainam Do,  R. G. Edgar,  Po-Tung Fang,  
 S. Faraji,  S. Fatehi,  Qingguo Feng,  K. D. Fenk,  J. Fosso-Tande,  
 J. Gayvert,  Qinghui Ge,  A. Ghysels,  G. Gidofalvi,  J. Gomes,  
 J. Gonthier,  A. Gunina,  D. Hait,  M. W. D. Hanson-Heine,  
 P. H. P. Harbach,  A. W. Hauser,  M. F. Herbst,  J. E. Herr,  
 E. G. Hohenstein,  Z. C. Holden,  Kerwin Hui,  B. C. Huynh,  T.-C. Jagau,  
 Hyunjun Ji,  B. Kaduk,  K. Khistyaev,  Jaehoon Kim,  P. Klunzinger,  K. Koh,  
 D. Kosenkov,  L. Koulias,  T. Kowalczyk,  C. M. Krauter,  A. Kunitsa,  
 Ka Un Lao,  A. Laurent,  K. V. Lawler,  Joonho Lee,  D. Lefrancois,  
 S. Lehtola,  D. S. Levine,  Yi-Pei Li,  You-Sheng Lin,  Fenglai Liu,  
 E. Livshits,  A. Luenser,  P. Manohar,  E. Mansoor,  S. F. Manzer,  
 Shan-Ping Mao,  Yuezhi Mao,  N. Mardirossian,  A. V. Marenich,  
 T. Markovich,  L. A. Martinez-Martinez,  S. A. Maurer,  N. J. Mayhall,  
 S. C. McKenzie,  J.-M. Mewes,  P. Morgante,  A. F. Morrison,  
 J. W. Mullinax,  K. Nanda,  T. S. Nguyen-Beck,  R. Olivares-Amaya,  
 J. A. Parkhill,  Zheng Pei,  T. M. Perrine,  F. Plasser,  P. Pokhilko,  
 S. Prager,  A. Prociuk,  E. Ramos,  D. R. Rehn,  F. Rob,  M. Scheurer,  
 M. Schneider,  N. Sergueev,  S. M. Sharada,  S. Sharma,  D. W. Small,  
 T. Stauch,  T. Stein,  Yu-Chuan Su,  A. J. W. Thom,  A. Tkatchenko,  
 T. Tsuchimochi,  N. M. Tubman,  L. Vogt,  M. L. Vidal,  O. Vydrov,  
 M. A. Watson,  J. Wenzel,  M. de Wergifosse,  T. A. Wesolowski,  A. White,  
 J. Witte,  A. Yamada,  Jun Yang,  K. Yao,  S. Yeganeh,  S. R. Yost,  
 Zhi-Qiang You,  A. Zech,  Igor Ying Zhang,  Xing Zhang,  Yan Zhao,  
 Ying Zhu,  B. R. Brooks,  G. K. L. Chan,  C. J. Cramer,  M. S. Gordon,  
 W. J. Hehre,  A. Klamt,  M. W. Schmidt,  C. D. Sherrill,  D. G. Truhlar,  
 A. Aspuru-Guzik,  R. Baer,  A. T. Bell,  N. A. Besley,  Jeng-Da Chai,  
 A. E. DePrince, III,  R. A. DiStasio Jr.,  A. Dreuw,  B. D. Dunietz,  
 T. R. Furlani,  Chao-Ping Hsu,  Yousung Jung,  Jing Kong,  D. S. Lambrecht,  
 WanZhen Liang,  C. Ochsenfeld,  V. A. Rassolov,  L. V. Slipchenko,  
 J. E. Subotnik,  T. Van Voorhis,  J. M. Herbert,  A. I. Krylov,  
 P. M. W. Gill,  M. Head-Gordon

 Contributors to earlier versions of Q-Chem not listed above: 
 R. D. Adamson,  B. Austin,  J. Baker,  G. J. O. Beran,  K. Brandhorst,  
 S. T. Brown,  E. F. C. Byrd,  A. K. Chakraborty,  C.-L. Cheng,  
 Siu Hung Chien,  D. M. Chipman,  D. L. Crittenden,  H. Dachsel,  
 R. J. Doerksen,  A. D. Dutoi,  L. Fusti-Molnar,  W. A. Goddard III,  
 A. Golubeva-Zadorozhnaya,  S. R. Gwaltney,  G. Hawkins,  A. Heyden,  
 S. Hirata,  G. Kedziora,  F. J. Keil,  C. Kelley,  Jihan Kim,  R. A. King,  
 R. Z. Khaliullin,  P. P. Korambath,  W. Kurlancheek,  A. M. Lee,  M. S. Lee,  
 S. V. Levchenko,  Ching Yeh Lin,  D. Liotard,  R. C. Lochan,  I. Lotan,  
 P. E. Maslen,  N. Nair,  D. P. O'Neill,  D. Neuhauser,  E. Neuscamman,  
 C. M. Oana,  R. Olson,  B. Peters,  R. Peverati,  P. A. Pieniazek,  
 Y. M. Rhee,  J. Ritchie,  M. A. Rohrdanz,  E. Rosta,  N. J. Russ,  
 H. F. Schaefer III,  N. E. Schultz,  N. Shenvi,  A. C. Simmonett,  A. Sodt,  
 D. Stuck,  K. S. Thanthiriwatte,  V. Vanovschi,  Tao Wang,  A. Warshel,  
 C. F. Williams,  Q. Wu,  X. Xu,  W. Zhang

 Please cite Q-Chem as follows:
 Y. Shao et al., Mol. Phys. 113, 184-215 (2015)
 DOI: 10.1080/00268976.2014.952696

 Q-Chem 5.2.1 for Intel X86 EM64T Linux

 Parts of Q-Chem use Armadillo 8.300.2 (Tropical Shenanigans).
 http://arma.sourceforge.net/

 Q-Chem begins on Mon Feb  7 18:19:02 2022  

Host: 
0

     Scratch files written to /gpfs/fs0/scratch/a/aspuru/rhickman/descriptor_computation/qchem163665//
 Jul1719 |scratch|qcdevops|jenkins|workspace|build_RNUM -1
Processing $rem in /scinet/niagara/software/commercial/qc52/config/preferences:
	 MEM_TOTAL  4000 
NAlpha2: 190
NElect   190
Mult     1

Checking the input file for inconsistencies... 	...done.

--------------------------------------------------------------
User input:
--------------------------------------------------------------
$molecule
0 1
C         1.99880769870000   -5.41475596580000    1.10923575360000
O         1.39509782080000   -4.15716297820000    1.29817432150000
C         1.80363720800000   -3.11632293330000    0.52582641200000
C         1.16219105610000   -1.90199548990000    0.77051094460000
C         1.47192334170000   -0.77410980210000    0.02828610470000
N         0.82247557800000    0.45605743290000    0.25353092150000
C         1.70226896150000    1.54046875650000    0.45144912770000
C         2.75267759430000    1.74928627470000   -0.44082488060000
S         2.97847348840000    0.62119490790000   -1.78981546440000
C         3.62213915200000    2.81551125800000   -0.27300361520000
C         3.45785345300000    3.67373860880000    0.79842755580000
C         2.44872203440000    3.44409864110000    1.72026136820000
C         1.58388690020000    2.37745545610000    1.55650743470000
C        -0.54891215650000    0.61340902530000    0.16419946560000
C        -1.13914210850000    1.87875416290000    0.26924606620000
C        -2.50258552890000    2.03173733630000    0.16708130940000
C        -3.34826925080000    0.94243546920000   -0.05654579780000
C        -4.77673702220000    1.17692472070000   -0.13286377910000
C        -5.75086224920000    0.29637849480000   -0.31366189140000
F        -5.64973398520000   -1.02122519510000   -0.46894676800000
F        -7.04142755900000    0.63658368620000   -0.36567622610000
C        -2.75264698640000   -0.31085250940000   -0.21585858300000
C        -1.38921902530000   -0.47104673260000   -0.11508394250000
C         2.49739586660000   -0.84524031370000   -0.91565760020000
C         3.14363462160000   -2.04443873260000   -1.15264150340000
C         2.79017493400000   -3.18504897130000   -0.45381644580000
H         1.52061004920000   -6.08005487350000    1.82611226160000
H         3.07409655480000   -5.37854202790000    1.31069392740000
H         1.82972116710000   -5.79349012900000    0.09629763430000
H         0.41342048420000   -1.86040440640000    1.54531339100000
H         4.41597134540000    2.96424860680000   -0.98843535160000
H         4.12762273780000    4.51049795860000    0.92291362180000
H         2.33612241160000    4.09516042670000    2.57373590680000
H         0.80495826680000    2.18625297790000    2.27930105070000
H        -0.52442344080000    2.75389263250000    0.40866392720000
H        -2.92577700860000    3.02164178250000    0.25776771390000
H        -5.10273862630000    2.20187008650000   -0.02628280740000
H        -3.35723089940000   -1.17704472950000   -0.42890787030000
H        -0.96946058620000   -1.45055808510000   -0.27756179040000
H         3.92270163010000   -2.08487798550000   -1.89783925920000
H         3.30001602890000   -4.10917076200000   -0.67096609460000
$end

$rem
BASIS = 6-31G*
GUI = 2
METHOD = B3LYP
PRINT_ORBITALS false
MOLDEN_FORMAT false
--------------------------------------------------------------
 ----------------------------------------------------------------
             Standard Nuclear Orientation (Angstroms)
    I     Atom           X                Y                Z
 ----------------------------------------------------------------
    1      C      -2.4980848730     5.1734199967     1.0336660030
    2      O      -1.7704180567     3.9857469702     1.2377182219
    3      C      -2.0568686427     2.9057619157     0.4641860202
    4      C      -1.2970238207     1.7652061577     0.7243460392
    5      C      -1.4766672055     0.6089766054    -0.0171520412
    6      N      -0.7069209533    -0.5465655023     0.2237674388
    7      C      -1.4726738207    -1.7156724287     0.4134183638
    8      C      -2.4817495570    -2.0349996329    -0.4937267474
    9      S      -2.8020550795    -0.9406117046    -1.8513235018
   10      C      -3.2386406641    -3.1850420670    -0.3340979772
   11      C      -3.0031179141    -4.0182635557     0.7437608798
   12      C      -2.0377102407    -3.6824102458     1.6797357143
   13      C      -1.2855269386    -2.5324184665     1.5241014256
   14      C       0.6746151934    -0.5612554714     0.1560471956
   15      C       1.3909889958    -1.7582986813     0.2760498225
   16      C       2.7643725519    -1.7695071493     0.1953564055
   17      C       3.4960983492    -0.5991508690    -0.0205420267
   18      C       4.9421852557    -0.6846078682    -0.0740170446
   19      C       5.8225946739     0.2915599708    -0.2441498687
   20      F       5.5880061865     1.5911001122    -0.4071942327
   21      F       7.1421050218     0.0867442376    -0.2749206241
   22      C       2.7764578413     0.5851712360    -0.1948288413
   23      C       1.4023646449     0.6035491479    -0.1155592871
   24      C      -2.4891264094     0.5705109399    -0.9769071767
   25      C      -3.2522910844     1.6955467504    -1.2293687592
   26      C      -3.0298006761     2.8688269379    -0.5306602733
   27      H      -2.1026045899     5.8869306244     1.7545720205
   28      H      -3.5668570177     5.0266186709     1.2189183779
   29      H      -2.3533291614     5.5644567239     0.0216336334
   30      H      -0.5601627083     1.8038516479     1.5106336746
   31      H      -4.0015337522    -3.4174734259    -1.0608061160
   32      H      -3.5844998092    -4.9195216740     0.8620096906
   33      H      -1.8716383235    -4.3156211389     2.5378982833
   34      H      -0.5419677940    -2.2592718702     2.2577427210
   35      H       0.8680960993    -2.6919783528     0.4102474798
   36      H       3.2863280291    -2.7099459987     0.2971557929
   37      H       5.3708656357    -1.6699191829     0.0423629243
   38      H       3.2913479273     1.5086718403    -0.4027603252
   39      H       0.8860206401     1.5337814558    -0.2890395743
   40      H      -4.0196250700     1.6527093637    -1.9865107175
   41      H      -3.6291425376     3.7344628600    -0.7599129279
 ----------------------------------------------------------------
 Molecular Point Group                 C1    NOp =  1
 Largest Abelian Subgroup              C1    NOp =  1
 Nuclear Repulsion Energy =        2328.57153542 hartrees
 There are       95 alpha and       95 beta electrons
 Requested basis set is 6-31G(d)
 There are 135 shells and 424 basis functions

 Total QAlloc Memory Limit   4000 MB
 Mega-Array Size       188 MB
 MEM_STATIC part       192 MB
 A cutoff of  1.0D-08 yielded   4065 shell pairs
 There are     43529 function pairs
 Smallest overlap matrix eigenvalue = 3.58E-04

 Scale SEOQF with 1.000000e-02/1.000000e-02/1.000000e-01

 Standard Electronic Orientation quadrupole field applied
 Nucleus-field energy     =    -0.0000000027 hartrees
 Guess from superposition of atomic densities
 Warning:  Energy on first SCF cycle will be non-variational
 SAD guess density has 190.000000 electrons

 -----------------------------------------------------------------------
  General SCF calculation program by
  Eric Jon Sundstrom, Paul Horn, Yuezhi Mao, Dmitri Zuev, Alec White,
  David Stuck, Shaama M.S., Shane Yost, Joonho Lee, David Small,
  Daniel Levine, Susi Lehtola, Hugh Burton, Evgeny Epifanovsky,
  Bang C. Huynh
 -----------------------------------------------------------------------
 Exchange:     0.2000 Hartree-Fock + 0.0800 Slater + 0.7200 B88
 Correlation:  0.1900 VWN1RPA + 0.8100 LYP
 Using SG-1 standard quadrature grid
 A restricted SCF calculation will be
 performed using DIIS
 SCF converges when DIIS error is below 1.0e-05
 ---------------------------------------
  Cycle       Energy         DIIS error
 ---------------------------------------
    1   -1543.7950950690      3.99e-02  
    2   -1536.7158868685      3.89e-03  
    3   -1536.4605562890      5.14e-03  
    4   -1537.0320260801      1.21e-03  
    5   -1537.0616590889      4.96e-04  
    6   -1537.0667056239      2.17e-04  
    7   -1537.0677853856      5.88e-05  
    8   -1537.0678591357      1.93e-05  
    9   -1537.0678675411      5.42e-06  Convergence criterion met
 ---------------------------------------
 SCF time:   CPU 139.36s  wall 139.00s 
 SCF   energy in the final basis set =    -1537.0678675411
 Total energy in the final basis set =    -1537.0678675411
 
 --------------------------------------------------------------
 
                    Orbital Energies (a.u.)
 --------------------------------------------------------------
 
 Alpha MOs
 -- Occupied --
-88.8916 -24.7330 -24.7222 -19.1848 -14.3724 -10.3426 -10.2551 -10.2457
-10.2375 -10.2353 -10.2308 -10.2239 -10.2187 -10.2010 -10.1979 -10.1960
-10.1947 -10.1943 -10.1941 -10.1926 -10.1912 -10.1893 -10.1835 -10.1806
-10.1779 -10.1772  -7.9524  -5.9173  -5.9139  -5.9075  -1.2725  -1.2121
 -1.0759  -0.9876  -0.8744  -0.8712  -0.8511  -0.8111  -0.7954  -0.7725
 -0.7644  -0.7525  -0.7429  -0.7297  -0.7097  -0.6795  -0.6501  -0.6364
 -0.6200  -0.6140  -0.6003  -0.5970  -0.5692  -0.5611  -0.5504  -0.5425
 -0.5237  -0.5068  -0.5030  -0.4991  -0.4899  -0.4811  -0.4778  -0.4648
 -0.4549  -0.4478  -0.4449  -0.4419  -0.4371  -0.4297  -0.4295  -0.4201
 -0.4128  -0.4098  -0.4085  -0.4008  -0.3888  -0.3835  -0.3794  -0.3713
 -0.3632  -0.3586  -0.3504  -0.3391  -0.3331  -0.3299  -0.3259  -0.2897
 -0.2826  -0.2573  -0.2493  -0.2458  -0.2398  -0.2076  -0.1807
 -- Virtual --
 -0.0233  -0.0122  -0.0081  -0.0050   0.0052   0.0109   0.0326   0.0742
  0.0820   0.0956   0.0986   0.1102   0.1170   0.1281   0.1400   0.1437
  0.1469   0.1491   0.1497   0.1553   0.1605   0.1634   0.1704   0.1774
  0.1809   0.1887   0.1940   0.1996   0.2015   0.2106   0.2158   0.2325
  0.2407   0.2618   0.2695   0.2824   0.2935   0.2968   0.3136   0.3175
  0.3276   0.3293   0.3474   0.3502   0.3592   0.3693   0.3820   0.3898
  0.3942   0.4182   0.4275   0.4345   0.4561   0.4879   0.5002   0.5020
  0.5075   0.5106   0.5197   0.5239   0.5307   0.5335   0.5375   0.5439
  0.5484   0.5553   0.5607   0.5681   0.5707   0.5731   0.5788   0.5843
  0.5894   0.5909   0.5947   0.5984   0.5997   0.6034   0.6054   0.6092
  0.6128   0.6206   0.6273   0.6307   0.6379   0.6439   0.6505   0.6533
  0.6601   0.6646   0.6741   0.6818   0.6992   0.7075   0.7098   0.7342
  0.7407   0.7680   0.7862   0.7888   0.8053   0.8159   0.8222   0.8262
  0.8290   0.8317   0.8369   0.8415   0.8453   0.8474   0.8523   0.8570
  0.8620   0.8694   0.8848   0.8875   0.8928   0.8981   0.9073   0.9153
  0.9204   0.9294   0.9363   0.9458   0.9510   0.9605   0.9694   0.9769
  0.9921   0.9957   1.0048   1.0146   1.0286   1.0330   1.0462   1.0517
  1.0548   1.0632   1.0819   1.0983   1.1073   1.1122   1.1238   1.1374
  1.1541   1.1688   1.1733   1.1765   1.1821   1.1942   1.1993   1.2153
  1.2280   1.2414   1.2439   1.2581   1.2667   1.2804   1.2923   1.3068
  1.3165   1.3262   1.3528   1.3645   1.3706   1.3747   1.3817   1.3931
  1.4139   1.4240   1.4320   1.4421   1.4465   1.4553   1.4569   1.4680
  1.4729   1.4760   1.4813   1.4860   1.5032   1.5050   1.5157   1.5315
  1.5325   1.5568   1.5622   1.5993   1.6180   1.6371   1.6605   1.6663
  1.7150   1.7272   1.7543   1.7657   1.7854   1.7931   1.7972   1.8070
  1.8093   1.8187   1.8301   1.8411   1.8472   1.8509   1.8625   1.8677
  1.8799   1.8856   1.8964   1.9174   1.9247   1.9302   1.9402   1.9490
  1.9572   1.9602   1.9625   1.9808   1.9944   2.0011   2.0089   2.0241
  2.0400   2.0443   2.0520   2.0758   2.0852   2.0905   2.0957   2.1048
  2.1220   2.1244   2.1436   2.1493   2.1524   2.1601   2.1625   2.1747
  2.1765   2.1977   2.2118   2.2333   2.2385   2.2482   2.2586   2.2656
  2.2926   2.2979   2.3098   2.3186   2.3335   2.3462   2.3527   2.3602
  2.3774   2.3795   2.4341   2.4463   2.4826   2.4958   2.5096   2.5315
  2.5508   2.5675   2.5795   2.6010   2.6270   2.6297   2.6389   2.6523
  2.6601   2.6620   2.6813   2.6973   2.7005   2.7238   2.7250   2.7376
  2.7509   2.7595   2.7873   2.8092   2.8172   2.8280   2.8527   2.8712
  2.9024   2.9225   2.9419   2.9703   2.9972   3.0061   3.0643   3.1279
  3.1628   3.2209   3.2579   3.3386   3.4022   3.4651   3.4951   3.9721
  4.0602   4.0910   4.0986   4.1104   4.1208   4.1365   4.1378   4.1657
  4.1861   4.2105   4.2144   4.2795   4.2978   4.3403   4.3542   4.3761
  4.4027   4.4094   4.4944   4.5568   4.7001   4.7545   4.7884   4.8340
  5.2860
 --------------------------------------------------------------
 
          Ground-State Mulliken Net Atomic Charges

     Atom                 Charge (a.u.)
  ----------------------------------------
      1 C                    -0.217155
      2 O                    -0.505076
      3 C                     0.376623
      4 C                    -0.211626
      5 C                     0.276344
      6 N                    -0.692623
      7 C                     0.259969
      8 C                    -0.097809
      9 S                     0.164459
     10 C                    -0.177955
     11 C                    -0.110976
     12 C                    -0.147085
     13 C                    -0.142717
     14 C                     0.360492
     15 C                    -0.196409
     16 C                    -0.206590
     17 C                     0.199335
     18 C                    -0.298005
     19 C                     0.532097
     20 F                    -0.240637
     21 F                    -0.255288
     22 C                    -0.206982
     23 C                    -0.194063
     24 C                    -0.106410
     25 C                    -0.182458
     26 C                    -0.181646
     27 H                     0.172990
     28 H                     0.153133
     29 H                     0.152983
     30 H                     0.158220
     31 H                     0.146285
     32 H                     0.133752
     33 H                     0.135411
     34 H                     0.151376
     35 H                     0.148667
     36 H                     0.125080
     37 H                     0.154073
     38 H                     0.136916
     39 H                     0.150198
     40 H                     0.147865
     41 H                     0.135242
  ----------------------------------------
  Sum of atomic charges =     0.000000

 -----------------------------------------------------------------
                    Cartesian Multipole Moments
 -----------------------------------------------------------------
    Charge (ESU x 10^10)
                 0.0000
    Dipole Moment (Debye)
         X      -3.1405      Y       0.7103      Z       1.1676
       Tot       3.4250
    Quadrupole Moments (Debye-Ang)
        XX    -156.7962     XY      -9.8728     YY    -126.9889
        XZ       1.8078     YZ      -4.3204     ZZ    -154.5767
    Octopole Moments (Debye-Ang^2)
       XXX     -21.1036    XXY       5.4001    XYY     -44.9496
       YYY      85.8246    XXZ      -5.3878    XYZ       1.6578
       YYZ      22.2294    XZZ      24.3596    YZZ       8.6989
       ZZZ       7.7731
    Hexadecapole Moments (Debye-Ang^3)
      XXXX   -9520.5211   XXXY    -146.2613   XXYY   -2004.7028
      XYYY    -138.0166   YYYY   -4301.4776   XXXZ      52.4513
      XXYZ       5.4135   XYYZ     -46.3433   YYYZ      31.5332
      XXZZ   -1641.7523   XYZZ      15.9554   YYZZ    -945.3006
      XZZZ     -40.6364   YZZZ      -8.2658   ZZZZ    -919.4825
 -----------------------------------------------------------------
Archival summary:
1\1\nia1977.scinet.local\SP\ProcedureUnspecified\6-31G*\12112115\rhickman\MonFeb718:21:232022MonFeb718:21:232022\0\\#,ProcedureUnspecified,6-31G*,\\0,1\S\C,1,1.77295\C,2,1.38599,1,120.114\H,3,1.07895,2,119.164,1,1.78961,0\C,3,1.38257,2,119.79,1,-178.551,0\H,5,1.07901,3,119.804,2,-179.293,0\C,5,1.38595,3,119.941,2,1.78248,0\H,7,1.07934,5,120.129,3,178.18,0\C,7,1.38293,5,120.29,3,-1.53924,0\H,9,1.07968,7,120.563,5,179.132,0\C,9,1.3913,7,120.321,5,-1.25581,0\N,11,1.41037,9,121.395,7,-179.218,0\C,12,1.38327,11,122.686,9,57.801,0\C,13,1.40006,12,121.319,11,175.991,0\H,14,1.07798,13,120.012,12,-0.764379,0\C,14,1.3765,13,121.262,12,-179.396,0\H,16,1.07759,14,118.467,13,-179.783,0\C,16,1.39674,14,121.229,13,0.651082,0\C,18,1.39706,16,117.371,14,1.95538,0\H,19,1.08038,18,119.389,16,177.713,0\C,19,1.3758,18,121.674,16,-1.97816,0\H,21,1.07851,19,118.962,18,177.937,0\C,12,1.40919,11,113.963,9,-127.956,0\C,23,1.38526,12,121.472,11,127.854,0\H,24,1.07829,23,120.588,12,-0.222829,0\C,24,1.39496,23,120.795,12,179.298,0\O,26,1.35896,24,115.392,23,-178.64,0\C,26,1.39201,24,119.493,23,1.61578,0\H,28,1.07754,26,121.299,24,-179.622,0\C,28,1.38358,26,119.723,24,1.39886,0\H,30,1.07884,28,120.163,26,178.626,0\C,30,1.3827,28,120.598,26,-1.99235,0\C,27,1.40773,26,118.621,24,-179.925,0\H,33,1.08867,27,105.616,26,179.954,0\H,33,1.09457,27,111.535,26,-61.4427,0\H,33,1.0946,27,111.533,26,61.3197,0\C,18,1.4496,16,124.012,14,-179.167,0\H,37,1.08081,18,116.451,16,-177.863,0\C,37,1.32551,18,128.603,16,2.35876,0\F,39,1.33057,37,128.163,18,0.0167384,0\F,39,1.33567,37,123.107,18,179.947,0\\\@

 Total job time:  140.45s(wall), 139.79s(cpu) 
 Mon Feb  7 18:21:23 2022

        *************************************************************
        *                                                           *
        *  Thank you very much for using Q-Chem.  Have a nice day.  *
        *                                                           *
        *************************************************************


