41
 energy: -72.310173406085 gnorm: 0.000144764784 xtb: 6.4.1 (23d549d)
C         1.99880769870000   -5.41475596580000    1.10923575360000
O         1.39509782080000   -4.15716297820000    1.29817432150000
C         1.80363720800000   -3.11632293330000    0.52582641200000
C         1.16219105610000   -1.90199548990000    0.77051094460000
C         1.47192334170000   -0.77410980210000    0.02828610470000
N         0.82247557800000    0.45605743290000    0.25353092150000
C         1.70226896150000    1.54046875650000    0.45144912770000
C         2.75267759430000    1.74928627470000   -0.44082488060000
S         2.97847348840000    0.62119490790000   -1.78981546440000
C         3.62213915200000    2.81551125800000   -0.27300361520000
C         3.45785345300000    3.67373860880000    0.79842755580000
C         2.44872203440000    3.44409864110000    1.72026136820000
C         1.58388690020000    2.37745545610000    1.55650743470000
C        -0.54891215650000    0.61340902530000    0.16419946560000
C        -1.13914210850000    1.87875416290000    0.26924606620000
C        -2.50258552890000    2.03173733630000    0.16708130940000
C        -3.34826925080000    0.94243546920000   -0.05654579780000
C        -4.77673702220000    1.17692472070000   -0.13286377910000
C        -5.75086224920000    0.29637849480000   -0.31366189140000
F        -5.64973398520000   -1.02122519510000   -0.46894676800000
F        -7.04142755900000    0.63658368620000   -0.36567622610000
C        -2.75264698640000   -0.31085250940000   -0.21585858300000
C        -1.38921902530000   -0.47104673260000   -0.11508394250000
C         2.49739586660000   -0.84524031370000   -0.91565760020000
C         3.14363462160000   -2.04443873260000   -1.15264150340000
C         2.79017493400000   -3.18504897130000   -0.45381644580000
H         1.52061004920000   -6.08005487350000    1.82611226160000
H         3.07409655480000   -5.37854202790000    1.31069392740000
H         1.82972116710000   -5.79349012900000    0.09629763430000
H         0.41342048420000   -1.86040440640000    1.54531339100000
H         4.41597134540000    2.96424860680000   -0.98843535160000
H         4.12762273780000    4.51049795860000    0.92291362180000
H         2.33612241160000    4.09516042670000    2.57373590680000
H         0.80495826680000    2.18625297790000    2.27930105070000
H        -0.52442344080000    2.75389263250000    0.40866392720000
H        -2.92577700860000    3.02164178250000    0.25776771390000
H        -5.10273862630000    2.20187008650000   -0.02628280740000
H        -3.35723089940000   -1.17704472950000   -0.42890787030000
H        -0.96946058620000   -1.45055808510000   -0.27756179040000
H         3.92270163010000   -2.08487798550000   -1.89783925920000
H         3.30001602890000   -4.10917076200000   -0.67096609460000
