
Running Job 1 of 1 fragments/C109/conf-5/spe_input.inp
qchem fragments/C109/conf-5/spe_input.inp_31111.0 /gpfs/fs0/scratch/a/aspuru/rhickman/descriptor_computation/qchem31111/ 0
/scinet/niagara/software/commercial/qc52/exe/qcprog.exe_s fragments/C109/conf-5/spe_input.inp_31111.0 /gpfs/fs0/scratch/a/aspuru/rhickman/descriptor_computation/qchem31111/
                  Welcome to Q-Chem
     A Quantum Leap Into The Future Of Chemistry


 Q-Chem 5.2, Q-Chem, Inc., Pleasanton, CA (2019)

 License issued to: SRG Alan Aspuru-Guzik, University of Toronto

 Yihan Shao,  Zhengting Gan,  E. Epifanovsky,  A. T. B. Gilbert,  M. Wormit,  
 J. Kussmann,  A. W. Lange,  A. Behn,  Jia Deng,  Xintian Feng,  D. Ghosh,  
 M. Goldey,  P. R. Horn,  L. D. Jacobson,  I. Kaliman,  T. Kus,  A. Landau,  
 Jie Liu,  E. I. Proynov,  R. M. Richard,  R. P. Steele,  E. J. Sundstrom,  
 H. L. Woodcock III,  P. M. Zimmerman,  D. Zuev,  B. Albrecht,  E. Alguire,  
 S. A. Baeppler,  D. Barton,  Z. Benda,  Y. A. Bernard,  E. J. Berquist,  
 K. B. Bravaya,  H. Burton,  D. Casanova,  Chun-Min Chang,  Yunqing Chen,  
 A. Chien,  K. D. Closser,  M. P. Coons,  S. Coriani,  S. Dasgupta,  
 A. L. Dempwolff,  M. Diedenhofen,  Hainam Do,  R. G. Edgar,  Po-Tung Fang,  
 S. Faraji,  S. Fatehi,  Qingguo Feng,  K. D. Fenk,  J. Fosso-Tande,  
 J. Gayvert,  Qinghui Ge,  A. Ghysels,  G. Gidofalvi,  J. Gomes,  
 J. Gonthier,  A. Gunina,  D. Hait,  M. W. D. Hanson-Heine,  
 P. H. P. Harbach,  A. W. Hauser,  M. F. Herbst,  J. E. Herr,  
 E. G. Hohenstein,  Z. C. Holden,  Kerwin Hui,  B. C. Huynh,  T.-C. Jagau,  
 Hyunjun Ji,  B. Kaduk,  K. Khistyaev,  Jaehoon Kim,  P. Klunzinger,  K. Koh,  
 D. Kosenkov,  L. Koulias,  T. Kowalczyk,  C. M. Krauter,  A. Kunitsa,  
 Ka Un Lao,  A. Laurent,  K. V. Lawler,  Joonho Lee,  D. Lefrancois,  
 S. Lehtola,  D. S. Levine,  Yi-Pei Li,  You-Sheng Lin,  Fenglai Liu,  
 E. Livshits,  A. Luenser,  P. Manohar,  E. Mansoor,  S. F. Manzer,  
 Shan-Ping Mao,  Yuezhi Mao,  N. Mardirossian,  A. V. Marenich,  
 T. Markovich,  L. A. Martinez-Martinez,  S. A. Maurer,  N. J. Mayhall,  
 S. C. McKenzie,  J.-M. Mewes,  P. Morgante,  A. F. Morrison,  
 J. W. Mullinax,  K. Nanda,  T. S. Nguyen-Beck,  R. Olivares-Amaya,  
 J. A. Parkhill,  Zheng Pei,  T. M. Perrine,  F. Plasser,  P. Pokhilko,  
 S. Prager,  A. Prociuk,  E. Ramos,  D. R. Rehn,  F. Rob,  M. Scheurer,  
 M. Schneider,  N. Sergueev,  S. M. Sharada,  S. Sharma,  D. W. Small,  
 T. Stauch,  T. Stein,  Yu-Chuan Su,  A. J. W. Thom,  A. Tkatchenko,  
 T. Tsuchimochi,  N. M. Tubman,  L. Vogt,  M. L. Vidal,  O. Vydrov,  
 M. A. Watson,  J. Wenzel,  M. de Wergifosse,  T. A. Wesolowski,  A. White,  
 J. Witte,  A. Yamada,  Jun Yang,  K. Yao,  S. Yeganeh,  S. R. Yost,  
 Zhi-Qiang You,  A. Zech,  Igor Ying Zhang,  Xing Zhang,  Yan Zhao,  
 Ying Zhu,  B. R. Brooks,  G. K. L. Chan,  C. J. Cramer,  M. S. Gordon,  
 W. J. Hehre,  A. Klamt,  M. W. Schmidt,  C. D. Sherrill,  D. G. Truhlar,  
 A. Aspuru-Guzik,  R. Baer,  A. T. Bell,  N. A. Besley,  Jeng-Da Chai,  
 A. E. DePrince, III,  R. A. DiStasio Jr.,  A. Dreuw,  B. D. Dunietz,  
 T. R. Furlani,  Chao-Ping Hsu,  Yousung Jung,  Jing Kong,  D. S. Lambrecht,  
 WanZhen Liang,  C. Ochsenfeld,  V. A. Rassolov,  L. V. Slipchenko,  
 J. E. Subotnik,  T. Van Voorhis,  J. M. Herbert,  A. I. Krylov,  
 P. M. W. Gill,  M. Head-Gordon

 Contributors to earlier versions of Q-Chem not listed above: 
 R. D. Adamson,  B. Austin,  J. Baker,  G. J. O. Beran,  K. Brandhorst,  
 S. T. Brown,  E. F. C. Byrd,  A. K. Chakraborty,  C.-L. Cheng,  
 Siu Hung Chien,  D. M. Chipman,  D. L. Crittenden,  H. Dachsel,  
 R. J. Doerksen,  A. D. Dutoi,  L. Fusti-Molnar,  W. A. Goddard III,  
 A. Golubeva-Zadorozhnaya,  S. R. Gwaltney,  G. Hawkins,  A. Heyden,  
 S. Hirata,  G. Kedziora,  F. J. Keil,  C. Kelley,  Jihan Kim,  R. A. King,  
 R. Z. Khaliullin,  P. P. Korambath,  W. Kurlancheek,  A. M. Lee,  M. S. Lee,  
 S. V. Levchenko,  Ching Yeh Lin,  D. Liotard,  R. C. Lochan,  I. Lotan,  
 P. E. Maslen,  N. Nair,  D. P. O'Neill,  D. Neuhauser,  E. Neuscamman,  
 C. M. Oana,  R. Olson,  B. Peters,  R. Peverati,  P. A. Pieniazek,  
 Y. M. Rhee,  J. Ritchie,  M. A. Rohrdanz,  E. Rosta,  N. J. Russ,  
 H. F. Schaefer III,  N. E. Schultz,  N. Shenvi,  A. C. Simmonett,  A. Sodt,  
 D. Stuck,  K. S. Thanthiriwatte,  V. Vanovschi,  Tao Wang,  A. Warshel,  
 C. F. Williams,  Q. Wu,  X. Xu,  W. Zhang

 Please cite Q-Chem as follows:
 Y. Shao et al., Mol. Phys. 113, 184-215 (2015)
 DOI: 10.1080/00268976.2014.952696

 Q-Chem 5.2.1 for Intel X86 EM64T Linux

 Parts of Q-Chem use Armadillo 8.300.2 (Tropical Shenanigans).
 http://arma.sourceforge.net/

 Q-Chem begins on Mon Feb  7 12:42:13 2022  

Host: 
0

     Scratch files written to /gpfs/fs0/scratch/a/aspuru/rhickman/descriptor_computation/qchem31111//
 Jul1719 |scratch|qcdevops|jenkins|workspace|build_RNUM -1
Processing $rem in /scinet/niagara/software/commercial/qc52/config/preferences:
	 MEM_TOTAL  4000 
NAlpha2: 118
NElect   118
Mult     1

Checking the input file for inconsistencies... 	...done.

--------------------------------------------------------------
User input:
--------------------------------------------------------------
$molecule
0 1
C        -3.64541746720000    3.12418518710000   -0.94982929200000
C        -3.67176665260000    2.03664155960000   -0.19026781600000
C        -2.54943768510000    1.13737395690000   -0.05885741230000
N        -2.61020983860000    0.00906845000000    0.70530385400000
C        -1.43343730180000   -0.54486102920000    0.58159809720000
C        -1.08163920540000   -1.83093732330000    1.14457824230000
C        -0.37949366970000   -2.76162938330000    0.51470693750000
N        -0.65133770900000    0.24061761520000   -0.24006214040000
C         0.72045323410000    0.18149151500000   -0.57811824380000
O         1.15014402040000    0.67733971770000   -1.57619356680000
O         1.37851507890000   -0.45620263690000    0.37289749630000
C         2.81737694400000   -0.66377894620000    0.27335066200000
C         3.53387375870000    0.68457616510000    0.26931111740000
C         3.15419648470000   -1.45776765210000    1.53421085270000
C         3.15057447370000   -1.47080548580000   -0.97937937890000
N        -1.38120322180000    1.29830170260000   -0.64043623450000
H        -4.49628179450000    3.77809465010000   -1.03267031630000
H        -2.76225500650000    3.38119077480000   -1.50896715080000
H        -4.54221110500000    1.74829655460000    0.38114011030000
H        -1.52420719710000   -2.02033449370000    2.11217703870000
H         0.01689708630000   -2.61010157190000   -0.47563394320000
H        -0.19000657830000   -3.71964673130000    0.96699018890000
H         3.24227081380000    1.26543092940000    1.14164088470000
H         3.28300290010000    1.24615602940000   -0.62649020140000
H         4.60809992390000    0.52596118190000    0.29579946410000
H         2.88326063680000   -0.88672704330000    2.41790601400000
H         4.21765470070000   -1.67421404560000    1.56278586490000
H         2.59887269770000   -2.39183424830000    1.54508089820000
H         2.88379029460000   -0.91525152800000   -1.87432268420000
H         2.61215970780000   -2.41610524010000   -0.97381564760000
H         4.21670144250000   -1.67752204160000   -1.00167438250000
$end

$rem
BASIS = 6-31G*
GUI = 2
METHOD = B3LYP
PRINT_ORBITALS false
MOLDEN_FORMAT false
--------------------------------------------------------------
 ----------------------------------------------------------------
             Standard Nuclear Orientation (Angstroms)
    I     Atom           X                Y                Z
 ----------------------------------------------------------------
    1      C       4.7273874333    -1.5211910299     0.0958652767
    2      C       4.2586382782    -0.2965069404     0.2978607406
    3      C       2.8646247337     0.0503237796     0.1495100879
    4      N       2.4107582877     1.3233810579     0.3340078604
    5      C       1.1245787817     1.2572002940     0.1142421431
    6      C       0.2467803383     2.4077910926     0.0965931895
    7      C      -0.7153694737     2.6068918636    -0.7925415284
    8      N       0.7872959905    -0.0456599377    -0.1900234568
    9      C      -0.4633057168    -0.6823160937    -0.3639559874
   10      O      -0.5797269007    -1.6919704769    -0.9914096484
   11      O      -1.3938269556    -0.0029997345     0.2816365072
   12      C      -2.7836859627    -0.4403653916     0.2636313509
   13      C      -2.9018412573    -1.8103581063     0.9274120356
   14      C      -3.5073060683     0.6275305296     1.0819260001
   15      C      -3.3100675799    -0.4729523012    -1.1693743962
   16      N       1.9069159153    -0.7924570353    -0.1689514391
   17      H       5.7718142978    -1.7542155992     0.2112013054
   18      H       4.0666886245    -2.3204936583    -0.1926747404
   19      H       4.8942725111     0.5285763416     0.5851412736
   20      H       0.4993031986     3.1615000261     0.8288091377
   21      H      -0.9389492248     1.8917021139    -1.5667360039
   22      H      -1.3055281377     3.5068416591    -0.7844265231
   23      H      -2.4733241498    -1.7796907389     1.9268200397
   24      H      -2.3781597423    -2.5625150711     0.3436434978
   25      H      -3.9489175306    -2.0893311821     1.0024287023
   26      H      -3.1024840519     0.6630962661     2.0895295740
   27      H      -4.5677128346     0.4003811983     1.1324197718
   28      H      -3.3721899079     1.6031497248     0.6226941615
   29      H      -2.7743061002    -1.2136594465    -1.7567840315
   30      H      -3.1944553920     0.5027979875    -1.6363414580
   31      H      -4.3650131023    -0.7315127016    -1.1597838033
 ----------------------------------------------------------------
 Molecular Point Group                 C1    NOp =  1
 Largest Abelian Subgroup              C1    NOp =  1
 Nuclear Repulsion Energy =        1128.54311593 hartrees
 There are       59 alpha and       59 beta electrons
 Requested basis set is 6-31G(d)
 There are 94 shells and 270 basis functions

 Total QAlloc Memory Limit   4000 MB
 Mega-Array Size       188 MB
 MEM_STATIC part       192 MB
 A cutoff of  1.0D-08 yielded   2698 shell pairs
 There are     24578 function pairs
 Smallest overlap matrix eigenvalue = 1.05E-03

 Scale SEOQF with 1.000000e-02/1.000000e-01/1.000000e-01

 Standard Electronic Orientation quadrupole field applied
 Nucleus-field energy     =     0.0000000124 hartrees
 Guess from superposition of atomic densities
 Warning:  Energy on first SCF cycle will be non-variational
 SAD guess density has 118.000000 electrons

 -----------------------------------------------------------------------
  General SCF calculation program by
  Eric Jon Sundstrom, Paul Horn, Yuezhi Mao, Dmitri Zuev, Alec White,
  David Stuck, Shaama M.S., Shane Yost, Joonho Lee, David Small,
  Daniel Levine, Susi Lehtola, Hugh Burton, Evgeny Epifanovsky,
  Bang C. Huynh
 -----------------------------------------------------------------------
 Exchange:     0.2000 Hartree-Fock + 0.0800 Slater + 0.7200 B88
 Correlation:  0.1900 VWN1RPA + 0.8100 LYP
 Using SG-1 standard quadrature grid
 A restricted SCF calculation will be
 performed using DIIS
 SCF converges when DIIS error is below 1.0e-05
 ---------------------------------------
  Cycle       Energy         DIIS error
 ---------------------------------------
    1    -746.5062244123      5.03e-02  
    2    -742.5155228168      6.48e-03  
    3    -742.0009778182      1.08e-02  
    4    -742.8100913595      2.66e-03  
    5    -742.8633188062      5.85e-04  
    6    -742.8651284538      2.93e-04  
    7    -742.8657448643      6.15e-05  
    8    -742.8657728458      1.72e-05  
    9    -742.8657750333      5.88e-06  Convergence criterion met
 ---------------------------------------
 SCF time:   CPU 55.34s  wall 56.00s 
 SCF   energy in the final basis set =     -742.8657750333
 Total energy in the final basis set =     -742.8657750333
 
 --------------------------------------------------------------
 
                    Orbital Energies (a.u.)
 --------------------------------------------------------------
 
 Alpha MOs
 -- Occupied --
-19.2074 -19.1507 -14.4316 -14.3552 -14.3252 -10.3630 -10.2703 -10.2672
-10.2402 -10.2105 -10.2022 -10.1907 -10.1882 -10.1847 -10.1823 -10.1822
 -1.1414  -1.0827  -1.0448  -0.9145  -0.8664  -0.8258  -0.7898  -0.7696
 -0.7098  -0.7064  -0.6935  -0.6454  -0.6333  -0.6207  -0.5601  -0.5358
 -0.5257  -0.5092  -0.4901  -0.4859  -0.4715  -0.4679  -0.4584  -0.4491
 -0.4396  -0.4309  -0.4145  -0.4078  -0.3977  -0.3871  -0.3806  -0.3776
 -0.3651  -0.3634  -0.3523  -0.3347  -0.3250  -0.3157  -0.3122  -0.2965
 -0.2733  -0.2652  -0.2319
 -- Virtual --
 -0.0537  -0.0184   0.0157   0.0663   0.0738   0.0930   0.1116   0.1176
  0.1251   0.1272   0.1454   0.1506   0.1581   0.1590   0.1670   0.1773
  0.1804   0.1878   0.1903   0.1985   0.2035   0.2170   0.2240   0.2333
  0.2447   0.2495   0.2629   0.2787   0.3037   0.3203   0.3330   0.3562
  0.3586   0.3917   0.4086   0.4579   0.4698   0.4888   0.4916   0.5068
  0.5140   0.5219   0.5250   0.5355   0.5441   0.5552   0.5722   0.5870
  0.5920   0.5992   0.6165   0.6293   0.6397   0.6447   0.6555   0.6590
  0.6682   0.6742   0.6875   0.6955   0.7030   0.7143   0.7170   0.7451
  0.7729   0.7908   0.8055   0.8108   0.8223   0.8260   0.8396   0.8506
  0.8546   0.8582   0.8615   0.8727   0.8793   0.8879   0.8912   0.8977
  0.9062   0.9116   0.9275   0.9390   0.9485   0.9625   0.9741   0.9797
  0.9834   0.9990   1.0189   1.0332   1.0430   1.0567   1.0721   1.1072
  1.1264   1.1326   1.1600   1.1708   1.2051   1.2196   1.2366   1.2809
  1.3161   1.3202   1.3312   1.3492   1.3630   1.3690   1.4056   1.4217
  1.4391   1.4553   1.4607   1.4790   1.4986   1.5080   1.5252   1.5329
  1.5808   1.6382   1.6593   1.6787   1.7123   1.7147   1.7453   1.7613
  1.7759   1.7878   1.8091   1.8286   1.8462   1.8498   1.8556   1.8720
  1.8872   1.9102   1.9170   1.9308   1.9519   1.9754   1.9821   2.0102
  2.0324   2.0550   2.0598   2.0668   2.0904   2.0995   2.1388   2.1609
  2.1656   2.1977   2.2111   2.2151   2.2308   2.2374   2.2544   2.2558
  2.2633   2.2665   2.2786   2.2993   2.3214   2.3362   2.3509   2.3809
  2.4114   2.4827   2.4911   2.5069   2.5238   2.5527   2.5739   2.6120
  2.6420   2.6515   2.6904   2.6987   2.7098   2.7349   2.7700   2.7827
  2.7924   2.8463   2.8861   2.9092   2.9690   2.9875   3.0747   3.1421
  3.1893   3.2835   3.3666   3.8979   4.0629   4.1001   4.1090   4.1428
  4.1588   4.2059   4.2400   4.2489   4.3000   4.3132   4.3919   4.4687
  4.5680   4.6056   4.6984
 --------------------------------------------------------------
 
          Ground-State Mulliken Net Atomic Charges

     Atom                 Charge (a.u.)
  ----------------------------------------
      1 C                    -0.335548
      2 C                    -0.090915
      3 C                     0.429264
      4 N                    -0.528242
      5 C                     0.497600
      6 C                    -0.090425
      7 C                    -0.324589
      8 N                    -0.404466
      9 C                     0.797692
     10 O                    -0.443733
     11 O                    -0.480394
     12 C                     0.296802
     13 C                    -0.468253
     14 C                    -0.452206
     15 C                    -0.474899
     16 N                    -0.330123
     17 H                     0.146715
     18 H                     0.173830
     19 H                     0.147752
     20 H                     0.164320
     21 H                     0.155139
     22 H                     0.155162
     23 H                     0.154760
     24 H                     0.191231
     25 H                     0.150109
     26 H                     0.159677
     27 H                     0.152441
     28 H                     0.157510
     29 H                     0.192152
     30 H                     0.148996
     31 H                     0.152642
  ----------------------------------------
  Sum of atomic charges =     0.000000

 -----------------------------------------------------------------
                    Cartesian Multipole Moments
 -----------------------------------------------------------------
    Charge (ESU x 10^10)
                 0.0000
    Dipole Moment (Debye)
         X      -3.4697      Y       1.5213      Z       0.8373
       Tot       3.8800
    Quadrupole Moments (Debye-Ang)
        XX     -82.0902     XY      -3.7163     YY     -95.0603
        XZ       0.3202     YZ      -3.0794     ZZ     -94.6062
    Octopole Moments (Debye-Ang^2)
       XXX      -6.3692    XXY     -26.2572    XYY     -13.7557
       YYY       7.4464    XXZ       4.1124    XYZ       3.5459
       YYZ       4.8969    XZZ     -10.4865    YZZ       1.7867
       ZZZ      -1.0296
    Hexadecapole Moments (Debye-Ang^3)
      XXXX   -3632.5305   XXXY     -50.2650   XXYY    -851.1518
      XYYY     -43.8407   YYYY   -1099.5480   XXXZ      18.6729
      XXYZ      -2.1776   XYYZ       2.4387   YYYZ       9.6735
      XXZZ    -758.1418   XYZZ       5.2240   YYZZ    -257.5856
      XZZZ      -4.6677   YZZZ       5.7347   ZZZZ    -358.6593
 -----------------------------------------------------------------
Archival summary:
1\1\nia1977.scinet.local\SP\ProcedureUnspecified\6-31G*\231115\rhickman\MonFeb712:43:102022MonFeb712:43:102022\0\\#,ProcedureUnspecified,6-31G*,\\0,1\O\C,1,1.32066\O,2,1.19443,1,128.53\N,2,1.41407,1,109.355,3,-178.618,0\N,4,1.34599,2,119.195,1,148.488,0\C,5,1.31488,4,104.716,2,-173.334,0\N,6,1.36408,5,112.867,4,-0.164491,0\C,7,1.3065,6,104.923,5,-0.255193,0\C,6,1.44415,5,125.031,4,179.817,0\H,9,1.08043,6,114.318,5,-178.72,0\C,9,1.32679,6,123.166,5,1.49661,0\H,11,1.0763,9,121.76,6,179.885,0\H,11,1.07641,9,120.622,6,-0.0495843,0\C,8,1.44731,7,123.977,6,-174.938,0\H,14,1.08073,8,113.857,7,-37.0439,0\C,14,1.32512,8,124.611,7,137.428,0\H,16,1.07623,14,121.248,8,-176.926,0\H,16,1.07743,14,122.214,8,2.08033,0\C,1,1.45716,2,120.772,3,-1.61861,0\C,19,1.52691,1,109.739,2,62.9902,0\H,20,1.0862,19,109.576,1,174.355,0\H,20,1.08663,19,110.501,1,-65.6462,0\H,20,1.08783,19,110.097,1,54.6363,0\C,19,1.52697,1,110.292,2,-59.8904,0\H,24,1.08621,19,109.366,1,-175.983,0\H,24,1.08662,19,110.604,1,64.2775,0\H,24,1.08789,19,110.307,1,-56.4908,0\C,19,1.52762,1,103.614,2,-178.461,0\H,28,1.08564,19,109.958,1,179.821,0\H,28,1.08647,19,110.07,1,-59.9269,0\H,28,1.08673,19,110.019,1,59.5053,0\\\@

 Total job time:  56.97s(wall), 55.58s(cpu) 
 Mon Feb  7 12:43:10 2022

        *************************************************************
        *                                                           *
        *  Thank you very much for using Q-Chem.  Have a nice day.  *
        *                                                           *
        *************************************************************


