
Running Job 1 of 1 fragments/C101/conf-2/spe_input.inp
qchem fragments/C101/conf-2/spe_input.inp_147586.0 /gpfs/fs0/scratch/a/aspuru/rhickman/descriptor_computation/qchem147586/ 0
/scinet/niagara/software/commercial/qc52/exe/qcprog.exe_s fragments/C101/conf-2/spe_input.inp_147586.0 /gpfs/fs0/scratch/a/aspuru/rhickman/descriptor_computation/qchem147586/
                  Welcome to Q-Chem
     A Quantum Leap Into The Future Of Chemistry


 Q-Chem 5.2, Q-Chem, Inc., Pleasanton, CA (2019)

 License issued to: SRG Alan Aspuru-Guzik, University of Toronto

 Yihan Shao,  Zhengting Gan,  E. Epifanovsky,  A. T. B. Gilbert,  M. Wormit,  
 J. Kussmann,  A. W. Lange,  A. Behn,  Jia Deng,  Xintian Feng,  D. Ghosh,  
 M. Goldey,  P. R. Horn,  L. D. Jacobson,  I. Kaliman,  T. Kus,  A. Landau,  
 Jie Liu,  E. I. Proynov,  R. M. Richard,  R. P. Steele,  E. J. Sundstrom,  
 H. L. Woodcock III,  P. M. Zimmerman,  D. Zuev,  B. Albrecht,  E. Alguire,  
 S. A. Baeppler,  D. Barton,  Z. Benda,  Y. A. Bernard,  E. J. Berquist,  
 K. B. Bravaya,  H. Burton,  D. Casanova,  Chun-Min Chang,  Yunqing Chen,  
 A. Chien,  K. D. Closser,  M. P. Coons,  S. Coriani,  S. Dasgupta,  
 A. L. Dempwolff,  M. Diedenhofen,  Hainam Do,  R. G. Edgar,  Po-Tung Fang,  
 S. Faraji,  S. Fatehi,  Qingguo Feng,  K. D. Fenk,  J. Fosso-Tande,  
 J. Gayvert,  Qinghui Ge,  A. Ghysels,  G. Gidofalvi,  J. Gomes,  
 J. Gonthier,  A. Gunina,  D. Hait,  M. W. D. Hanson-Heine,  
 P. H. P. Harbach,  A. W. Hauser,  M. F. Herbst,  J. E. Herr,  
 E. G. Hohenstein,  Z. C. Holden,  Kerwin Hui,  B. C. Huynh,  T.-C. Jagau,  
 Hyunjun Ji,  B. Kaduk,  K. Khistyaev,  Jaehoon Kim,  P. Klunzinger,  K. Koh,  
 D. Kosenkov,  L. Koulias,  T. Kowalczyk,  C. M. Krauter,  A. Kunitsa,  
 Ka Un Lao,  A. Laurent,  K. V. Lawler,  Joonho Lee,  D. Lefrancois,  
 S. Lehtola,  D. S. Levine,  Yi-Pei Li,  You-Sheng Lin,  Fenglai Liu,  
 E. Livshits,  A. Luenser,  P. Manohar,  E. Mansoor,  S. F. Manzer,  
 Shan-Ping Mao,  Yuezhi Mao,  N. Mardirossian,  A. V. Marenich,  
 T. Markovich,  L. A. Martinez-Martinez,  S. A. Maurer,  N. J. Mayhall,  
 S. C. McKenzie,  J.-M. Mewes,  P. Morgante,  A. F. Morrison,  
 J. W. Mullinax,  K. Nanda,  T. S. Nguyen-Beck,  R. Olivares-Amaya,  
 J. A. Parkhill,  Zheng Pei,  T. M. Perrine,  F. Plasser,  P. Pokhilko,  
 S. Prager,  A. Prociuk,  E. Ramos,  D. R. Rehn,  F. Rob,  M. Scheurer,  
 M. Schneider,  N. Sergueev,  S. M. Sharada,  S. Sharma,  D. W. Small,  
 T. Stauch,  T. Stein,  Yu-Chuan Su,  A. J. W. Thom,  A. Tkatchenko,  
 T. Tsuchimochi,  N. M. Tubman,  L. Vogt,  M. L. Vidal,  O. Vydrov,  
 M. A. Watson,  J. Wenzel,  M. de Wergifosse,  T. A. Wesolowski,  A. White,  
 J. Witte,  A. Yamada,  Jun Yang,  K. Yao,  S. Yeganeh,  S. R. Yost,  
 Zhi-Qiang You,  A. Zech,  Igor Ying Zhang,  Xing Zhang,  Yan Zhao,  
 Ying Zhu,  B. R. Brooks,  G. K. L. Chan,  C. J. Cramer,  M. S. Gordon,  
 W. J. Hehre,  A. Klamt,  M. W. Schmidt,  C. D. Sherrill,  D. G. Truhlar,  
 A. Aspuru-Guzik,  R. Baer,  A. T. Bell,  N. A. Besley,  Jeng-Da Chai,  
 A. E. DePrince, III,  R. A. DiStasio Jr.,  A. Dreuw,  B. D. Dunietz,  
 T. R. Furlani,  Chao-Ping Hsu,  Yousung Jung,  Jing Kong,  D. S. Lambrecht,  
 WanZhen Liang,  C. Ochsenfeld,  V. A. Rassolov,  L. V. Slipchenko,  
 J. E. Subotnik,  T. Van Voorhis,  J. M. Herbert,  A. I. Krylov,  
 P. M. W. Gill,  M. Head-Gordon

 Contributors to earlier versions of Q-Chem not listed above: 
 R. D. Adamson,  B. Austin,  J. Baker,  G. J. O. Beran,  K. Brandhorst,  
 S. T. Brown,  E. F. C. Byrd,  A. K. Chakraborty,  C.-L. Cheng,  
 Siu Hung Chien,  D. M. Chipman,  D. L. Crittenden,  H. Dachsel,  
 R. J. Doerksen,  A. D. Dutoi,  L. Fusti-Molnar,  W. A. Goddard III,  
 A. Golubeva-Zadorozhnaya,  S. R. Gwaltney,  G. Hawkins,  A. Heyden,  
 S. Hirata,  G. Kedziora,  F. J. Keil,  C. Kelley,  Jihan Kim,  R. A. King,  
 R. Z. Khaliullin,  P. P. Korambath,  W. Kurlancheek,  A. M. Lee,  M. S. Lee,  
 S. V. Levchenko,  Ching Yeh Lin,  D. Liotard,  R. C. Lochan,  I. Lotan,  
 P. E. Maslen,  N. Nair,  D. P. O'Neill,  D. Neuhauser,  E. Neuscamman,  
 C. M. Oana,  R. Olson,  B. Peters,  R. Peverati,  P. A. Pieniazek,  
 Y. M. Rhee,  J. Ritchie,  M. A. Rohrdanz,  E. Rosta,  N. J. Russ,  
 H. F. Schaefer III,  N. E. Schultz,  N. Shenvi,  A. C. Simmonett,  A. Sodt,  
 D. Stuck,  K. S. Thanthiriwatte,  V. Vanovschi,  Tao Wang,  A. Warshel,  
 C. F. Williams,  Q. Wu,  X. Xu,  W. Zhang

 Please cite Q-Chem as follows:
 Y. Shao et al., Mol. Phys. 113, 184-215 (2015)
 DOI: 10.1080/00268976.2014.952696

 Q-Chem 5.2.1 for Intel X86 EM64T Linux

 Parts of Q-Chem use Armadillo 8.300.2 (Tropical Shenanigans).
 http://arma.sourceforge.net/

 Q-Chem begins on Mon Feb  7 17:30:30 2022  

Host: 
0

     Scratch files written to /gpfs/fs0/scratch/a/aspuru/rhickman/descriptor_computation/qchem147586//
 Jul1719 |scratch|qcdevops|jenkins|workspace|build_RNUM -1
Processing $rem in /scinet/niagara/software/commercial/qc52/config/preferences:
	 MEM_TOTAL  4000 
NAlpha2: 116
NElect   116
Mult     1

Checking the input file for inconsistencies... 	...done.

--------------------------------------------------------------
User input:
--------------------------------------------------------------
$molecule
0 1
C         3.33140296330000    2.30057320400000    0.15223538300000
C         2.77312921310000    1.10928777850000   -0.04750187240000
C         1.35623154380000    0.85428566840000    0.03560952380000
S         0.21979255060000    2.16056886140000    0.09936951780000
C        -1.13067194850000    1.07391803570000    0.06285693290000
C        -2.45817845100000    1.64190901480000    0.03598396230000
C        -3.50895272840000    1.09735484570000   -0.56664201770000
C        -0.72035040030000   -0.24011600550000    0.00151166850000
C        -1.70001595840000   -1.36948280720000    0.16406759350000
O        -2.57034519510000   -1.31249416860000    0.99109229160000
O        -1.57260875170000   -2.41125704240000   -0.64723279280000
C         0.69959518610000   -0.36475484380000   -0.01416601970000
C         1.40745147140000   -1.65888462480000   -0.13201422370000
O         1.05518216160000   -2.52215760550000   -0.90089986390000
O         2.48349726040000   -1.83799229280000    0.63933533660000
H         4.39305861290000    2.44429261330000    0.06389439090000
H         2.74109839200000    3.16381266210000    0.41121563580000
H         3.39445629710000    0.26469219460000   -0.31791592570000
H        -2.54424828390000    2.61213666680000    0.50846989970000
H        -3.45421594260000    0.15443825700000   -1.08161411470000
H        -4.46783564790000    1.58431524810000   -0.55403451150000
H        -0.69137021830000   -2.47742591420000   -1.07956691600000
H         2.63842668410000   -1.10695075100000    1.25348107540000
$end

$rem
BASIS = 6-31G*
GUI = 2
METHOD = B3LYP
PRINT_ORBITALS false
MOLDEN_FORMAT false
--------------------------------------------------------------
 ----------------------------------------------------------------
             Standard Nuclear Orientation (Angstroms)
    I     Atom           X                Y                Z
 ----------------------------------------------------------------
    1      C       3.6941484201    -1.6074482032     0.0384502351
    2      C       2.9154911355    -0.5359622761     0.1662636056
    3      C       1.4795749754    -0.5575413518     0.0350701986
    4      S       0.6116985695    -2.0568275583     0.0056403240
    5      C      -0.9193585035    -1.2448900531    -0.0445520640
    6      C      -2.1166081739    -2.0522178393    -0.0239487739
    7      C      -3.2708605559    -1.6912321070     0.5248814700
    8      C      -0.7656102484     0.1244550262    -0.0363056331
    9      C      -1.9339537360     1.0400020870    -0.2779365120
   10      O      -2.7494453068     0.7841246929    -1.1230346090
   11      O      -2.0322399652     2.1206595791     0.4851189724
   12      C       0.6042467397     0.5161651901     0.0093131993
   13      C       1.0518737145     1.9247096959     0.0824779216
   14      O       0.5177251921     2.7376561728     0.7996406752
   15      O       2.1006750806     2.2712302254    -0.6691027182
   16      H       4.7602703204    -1.5437195766     0.1604947910
   17      H       3.2857327703    -2.5770521497    -0.1934494504
   18      H       3.3574733169     0.4217112121     0.4112657430
   19      H      -2.0027067658    -3.0404296124    -0.4510982029
   20      H      -3.4118300745    -0.7339332507     0.9949778050
   21      H      -4.1201564824    -2.3509767705     0.5114932558
   22      H      -1.1943496393     2.3707930711     0.9359465497
   23      H       2.4110068322     1.5572416359    -1.2431361220
 ----------------------------------------------------------------
 Molecular Point Group                 C1    NOp =  1
 Largest Abelian Subgroup              C1    NOp =  1
 Nuclear Repulsion Energy =        1092.85599906 hartrees
 There are       58 alpha and       58 beta electrons
 Requested basis set is 6-31G(d)
 There are 77 shells and 245 basis functions

 Total QAlloc Memory Limit   4000 MB
 Mega-Array Size       188 MB
 MEM_STATIC part       192 MB
 A cutoff of  1.0D-08 yielded   1941 shell pairs
 There are     21799 function pairs
 Smallest overlap matrix eigenvalue = 5.82E-04

 Scale SEOQF with 1.000000e-01/1.000000e-01/1.000000e+00

 Standard Electronic Orientation quadrupole field applied
 Nucleus-field energy     =     0.0000000133 hartrees
 Guess from superposition of atomic densities
 Warning:  Energy on first SCF cycle will be non-variational
 SAD guess density has 116.000000 electrons

 -----------------------------------------------------------------------
  General SCF calculation program by
  Eric Jon Sundstrom, Paul Horn, Yuezhi Mao, Dmitri Zuev, Alec White,
  David Stuck, Shaama M.S., Shane Yost, Joonho Lee, David Small,
  Daniel Levine, Susi Lehtola, Hugh Burton, Evgeny Epifanovsky,
  Bang C. Huynh
 -----------------------------------------------------------------------
 Exchange:     0.2000 Hartree-Fock + 0.0800 Slater + 0.7200 B88
 Correlation:  0.1900 VWN1RPA + 0.8100 LYP
 Using SG-1 standard quadrature grid
 A restricted SCF calculation will be
 performed using DIIS
 SCF converges when DIIS error is below 1.0e-05
 ---------------------------------------
  Cycle       Energy         DIIS error
 ---------------------------------------
    1   -1088.4417194088      5.23e-02  
    2   -1084.5859987883      7.18e-03  
    3   -1084.0005983237      1.23e-02  
    4   -1084.8708227739      2.73e-03  
    5   -1084.9167017095      6.82e-04  
    6   -1084.9192596310      2.65e-04  
    7   -1084.9197419235      1.07e-04  
    8   -1084.9198220607      2.92e-05  
    9   -1084.9198273779      8.48e-06  Convergence criterion met
 ---------------------------------------
 SCF time:   CPU 43.79s  wall 44.00s 
 SCF   energy in the final basis set =    -1084.9198273779
 Total energy in the final basis set =    -1084.9198273779
 
 --------------------------------------------------------------
 
                    Orbital Energies (a.u.)
 --------------------------------------------------------------
 
 Alpha MOs
 -- Occupied --
-88.9369 -19.2275 -19.1756 -19.1707 -19.1234 -10.3565 -10.3172 -10.2591
-10.2515 -10.2392 -10.2302 -10.2270 -10.2147 -10.2115 -10.1987  -7.9988
 -5.9627  -5.9590  -5.9559  -1.1400  -1.0945  -1.0566  -1.0098  -0.9253
 -0.8369  -0.8057  -0.7801  -0.7426  -0.6745  -0.6515  -0.6461  -0.6209
 -0.5958  -0.5750  -0.5470  -0.5190  -0.4901  -0.4818  -0.4782  -0.4711
 -0.4532  -0.4410  -0.4326  -0.4306  -0.4244  -0.4104  -0.3963  -0.3913
 -0.3757  -0.3629  -0.3484  -0.3408  -0.3121  -0.3056  -0.2912  -0.2849
 -0.2628  -0.2291
 -- Virtual --
 -0.0861  -0.0510  -0.0072  -0.0010   0.0240   0.0362   0.0593   0.0790
  0.0981   0.1157   0.1204   0.1352   0.1465   0.1586   0.1629   0.1866
  0.2075   0.2227   0.2451   0.2691   0.2712   0.3009   0.3101   0.3277
  0.3369   0.3549   0.3574   0.3702   0.3895   0.4069   0.4250   0.4528
  0.4688   0.4828   0.4944   0.5112   0.5297   0.5356   0.5385   0.5571
  0.5627   0.5689   0.5828   0.5934   0.6025   0.6203   0.6336   0.6420
  0.6487   0.6590   0.6636   0.6790   0.6994   0.7149   0.7322   0.7342
  0.7449   0.7609   0.7987   0.8127   0.8247   0.8344   0.8456   0.8520
  0.8572   0.8759   0.8819   0.8954   0.9112   0.9196   0.9404   0.9525
  0.9594   0.9693   0.9814   0.9957   1.0132   1.0243   1.0406   1.0447
  1.0514   1.0655   1.0754   1.0902   1.1066   1.1287   1.1317   1.1647
  1.1902   1.2067   1.2175   1.2362   1.2664   1.2889   1.3303   1.3371
  1.3605   1.3802   1.4026   1.4070   1.4365   1.4583   1.4766   1.4841
  1.5236   1.5420   1.5739   1.6049   1.6312   1.6337   1.6672   1.6931
  1.7144   1.7208   1.7441   1.7510   1.7867   1.7969   1.8148   1.8252
  1.8317   1.8505   1.8609   1.8890   1.9097   1.9170   1.9375   1.9586
  1.9736   1.9758   1.9992   2.0087   2.0244   2.0507   2.0658   2.0943
  2.1331   2.1931   2.1941   2.2218   2.2277   2.2602   2.2780   2.3133
  2.3627   2.3871   2.4048   2.4257   2.4496   2.4664   2.4871   2.5086
  2.5504   2.5680   2.5804   2.6125   2.6391   2.6807   2.7002   2.7572
  2.7658   2.8075   2.8263   2.8747   2.9218   2.9538   2.9730   3.0005
  3.0402   3.0744   3.2318   3.2846   3.8604   3.9364   3.9684   4.0355
  4.0758   4.1042   4.1268   4.2038   4.2067   4.2968   4.3386   4.3678
  4.4946   4.5214   4.7427
 --------------------------------------------------------------
 
          Ground-State Mulliken Net Atomic Charges

     Atom                 Charge (a.u.)
  ----------------------------------------
      1 C                    -0.361637
      2 C                    -0.104566
      3 C                    -0.196685
      4 S                     0.291996
      5 C                    -0.183434
      6 C                    -0.089813
      7 C                    -0.305178
      8 C                     0.047320
      9 C                     0.533013
     10 O                    -0.440987
     11 O                    -0.589763
     12 C                    -0.009999
     13 C                     0.578965
     14 O                    -0.469332
     15 O                    -0.554197
     16 H                     0.164017
     17 H                     0.168734
     18 H                     0.165947
     19 H                     0.145437
     20 H                     0.172180
     21 H                     0.157926
     22 H                     0.449607
     23 H                     0.430451
  ----------------------------------------
  Sum of atomic charges =     0.000000

 -----------------------------------------------------------------
                    Cartesian Multipole Moments
 -----------------------------------------------------------------
    Charge (ESU x 10^10)
                -0.0000
    Dipole Moment (Debye)
         X       4.4366      Y      -4.1800      Z       0.2388
       Tot       6.1002
    Quadrupole Moments (Debye-Ang)
        XX     -87.8958     XY       4.9968     YY     -96.6450
        XZ      -8.2909     YZ      -0.3829     ZZ     -93.7433
    Octopole Moments (Debye-Ang^2)
       XXX      49.2767    XXY     -29.7395    XYY      -9.3187
       YYY     -23.2787    XXZ      14.4851    XYZ      -6.1232
       YYZ      -8.8277    XZZ       5.5902    YZZ      15.4161
       ZZZ      -3.2863
    Hexadecapole Moments (Debye-Ang^3)
      XXXX   -2238.9823   XXXY      60.5608   XXYY    -661.6540
      XYYY     -13.7645   YYYY   -1687.3867   XXXZ     -66.8016
      XXYZ       0.7597   XYYZ      -3.6719   YYYZ       7.6151
      XXZZ    -458.0071   XYZZ       9.5754   YYZZ    -312.9244
      XZZZ     -17.2759   YZZZ       3.6048   ZZZZ    -199.2880
 -----------------------------------------------------------------
Archival summary:
1\1\nia1977.scinet.local\SP\ProcedureUnspecified\6-31G*\14108\rhickman\MonFeb717:31:142022MonFeb717:31:142022\0\\#,ProcedureUnspecified,6-31G*,\\0,1\S\C,1,1.73261\C,2,1.38554,1,110.721\C,3,1.42549,2,113.251,1,-0.0946452,0\C,4,1.37797,3,112.363,2,0.012146,0\C,2,1.44206,1,120.882,3,176.006,0\H,6,1.08283,2,116.12,1,-165.988,0\C,6,1.33069,2,124.186,1,12.2831,0\H,8,1.07498,6,121.446,2,-179.028,0\H,8,1.07736,6,121.569,2,1.07762,0\C,5,1.44416,4,130.387,3,176.793,0\H,11,1.08259,5,114.673,4,154.991,0\C,11,1.32809,5,125.062,4,-28.5176,0\H,13,1.07552,11,120.959,5,-179.33,0\H,13,1.07577,11,122.435,5,1.14717,0\C,3,1.47977,2,123.067,1,177.366,0\O,16,1.20852,3,122.408,2,-134.632,0\O,16,1.33601,3,117.164,2,44.304,0\H,18,0.967264,16,113.22,3,4.68038,0\C,4,1.50387,3,125.762,2,-170.29,0\O,20,1.20195,4,120.695,3,128.531,0\O,20,1.32655,4,117.457,3,-52.2797,0\H,22,0.983805,20,114.055,4,18.4936,0\\\@

 Total job time:  44.48s(wall), 44.01s(cpu) 
 Mon Feb  7 17:31:14 2022

        *************************************************************
        *                                                           *
        *  Thank you very much for using Q-Chem.  Have a nice day.  *
        *                                                           *
        *************************************************************


