30
 energy: -43.780301633497 gnorm: 0.000109925802 xtb: 6.4.1 (23d549d)
C         5.52751219920000   -1.22503999320000   -0.00374417280000
C         4.88548728390000   -0.06223304120000   -0.00325391240000
C         3.44347866000000    0.14511966580000   -0.00252726510000
C         2.96330703860000    1.46663416810000   -0.01521553280000
C         1.61800210500000    1.76037806090000   -0.01611387910000
C         0.70569495130000    0.71165799690000   -0.00349176520000
C         1.18442186540000   -0.62138318090000    0.01007784740000
C         2.53570195170000   -0.91164144880000    0.01057618810000
N         0.11090061030000   -1.47716532360000    0.02152410960000
C        -1.05086672310000   -0.74631541840000    0.01529669180000
C        -2.36384975050000   -1.17874879680000    0.02287564330000
C        -3.38452189220000   -0.22927907530000    0.01158685210000
C        -4.76298865020000   -0.70069635330000    0.01609897160000
C        -5.86441961630000    0.03874231360000   -0.04966438810000
C        -3.05552730950000    1.13681672880000   -0.00237533930000
C        -1.74937420700000    1.57191952260000   -0.00804006640000
C        -0.72512839170000    0.63131239420000   -0.00033008870000
H         6.60313418420000   -1.26935942490000   -0.00509039820000
H         5.02010429710000   -2.17441394660000   -0.00373999480000
H         5.46831940910000    0.85111975930000   -0.00470460490000
H         3.68121688970000    2.27445332160000   -0.02490615250000
H         1.27572350850000    2.78431677190000   -0.02623752670000
H         2.87299459580000   -1.93641040710000    0.02160592460000
H         0.16704684320000   -2.48078039760000    0.03212087940000
H        -2.59798661020000   -2.23411345490000    0.03508822530000
H        -4.86542879290000   -1.77816126260000    0.07567180120000
H        -5.84553566850000    1.11270558530000   -0.11679824170000
H        -6.84146851200000   -0.41342253230000   -0.04110604980000
H        -3.84944245620000    1.86660881660000   -0.00557063120000
H        -1.52074632460000    2.62717176870000   -0.01803823190000
