
Running Job 1 of 1 fragments/C040/conf-2/spe_input.inp
qchem fragments/C040/conf-2/spe_input.inp_127956.0 /gpfs/fs0/scratch/a/aspuru/rhickman/descriptor_computation/qchem127956/ 0
/scinet/niagara/software/commercial/qc52/exe/qcprog.exe_s fragments/C040/conf-2/spe_input.inp_127956.0 /gpfs/fs0/scratch/a/aspuru/rhickman/descriptor_computation/qchem127956/
                  Welcome to Q-Chem
     A Quantum Leap Into The Future Of Chemistry


 Q-Chem 5.2, Q-Chem, Inc., Pleasanton, CA (2019)

 License issued to: SRG Alan Aspuru-Guzik, University of Toronto

 Yihan Shao,  Zhengting Gan,  E. Epifanovsky,  A. T. B. Gilbert,  M. Wormit,  
 J. Kussmann,  A. W. Lange,  A. Behn,  Jia Deng,  Xintian Feng,  D. Ghosh,  
 M. Goldey,  P. R. Horn,  L. D. Jacobson,  I. Kaliman,  T. Kus,  A. Landau,  
 Jie Liu,  E. I. Proynov,  R. M. Richard,  R. P. Steele,  E. J. Sundstrom,  
 H. L. Woodcock III,  P. M. Zimmerman,  D. Zuev,  B. Albrecht,  E. Alguire,  
 S. A. Baeppler,  D. Barton,  Z. Benda,  Y. A. Bernard,  E. J. Berquist,  
 K. B. Bravaya,  H. Burton,  D. Casanova,  Chun-Min Chang,  Yunqing Chen,  
 A. Chien,  K. D. Closser,  M. P. Coons,  S. Coriani,  S. Dasgupta,  
 A. L. Dempwolff,  M. Diedenhofen,  Hainam Do,  R. G. Edgar,  Po-Tung Fang,  
 S. Faraji,  S. Fatehi,  Qingguo Feng,  K. D. Fenk,  J. Fosso-Tande,  
 J. Gayvert,  Qinghui Ge,  A. Ghysels,  G. Gidofalvi,  J. Gomes,  
 J. Gonthier,  A. Gunina,  D. Hait,  M. W. D. Hanson-Heine,  
 P. H. P. Harbach,  A. W. Hauser,  M. F. Herbst,  J. E. Herr,  
 E. G. Hohenstein,  Z. C. Holden,  Kerwin Hui,  B. C. Huynh,  T.-C. Jagau,  
 Hyunjun Ji,  B. Kaduk,  K. Khistyaev,  Jaehoon Kim,  P. Klunzinger,  K. Koh,  
 D. Kosenkov,  L. Koulias,  T. Kowalczyk,  C. M. Krauter,  A. Kunitsa,  
 Ka Un Lao,  A. Laurent,  K. V. Lawler,  Joonho Lee,  D. Lefrancois,  
 S. Lehtola,  D. S. Levine,  Yi-Pei Li,  You-Sheng Lin,  Fenglai Liu,  
 E. Livshits,  A. Luenser,  P. Manohar,  E. Mansoor,  S. F. Manzer,  
 Shan-Ping Mao,  Yuezhi Mao,  N. Mardirossian,  A. V. Marenich,  
 T. Markovich,  L. A. Martinez-Martinez,  S. A. Maurer,  N. J. Mayhall,  
 S. C. McKenzie,  J.-M. Mewes,  P. Morgante,  A. F. Morrison,  
 J. W. Mullinax,  K. Nanda,  T. S. Nguyen-Beck,  R. Olivares-Amaya,  
 J. A. Parkhill,  Zheng Pei,  T. M. Perrine,  F. Plasser,  P. Pokhilko,  
 S. Prager,  A. Prociuk,  E. Ramos,  D. R. Rehn,  F. Rob,  M. Scheurer,  
 M. Schneider,  N. Sergueev,  S. M. Sharada,  S. Sharma,  D. W. Small,  
 T. Stauch,  T. Stein,  Yu-Chuan Su,  A. J. W. Thom,  A. Tkatchenko,  
 T. Tsuchimochi,  N. M. Tubman,  L. Vogt,  M. L. Vidal,  O. Vydrov,  
 M. A. Watson,  J. Wenzel,  M. de Wergifosse,  T. A. Wesolowski,  A. White,  
 J. Witte,  A. Yamada,  Jun Yang,  K. Yao,  S. Yeganeh,  S. R. Yost,  
 Zhi-Qiang You,  A. Zech,  Igor Ying Zhang,  Xing Zhang,  Yan Zhao,  
 Ying Zhu,  B. R. Brooks,  G. K. L. Chan,  C. J. Cramer,  M. S. Gordon,  
 W. J. Hehre,  A. Klamt,  M. W. Schmidt,  C. D. Sherrill,  D. G. Truhlar,  
 A. Aspuru-Guzik,  R. Baer,  A. T. Bell,  N. A. Besley,  Jeng-Da Chai,  
 A. E. DePrince, III,  R. A. DiStasio Jr.,  A. Dreuw,  B. D. Dunietz,  
 T. R. Furlani,  Chao-Ping Hsu,  Yousung Jung,  Jing Kong,  D. S. Lambrecht,  
 WanZhen Liang,  C. Ochsenfeld,  V. A. Rassolov,  L. V. Slipchenko,  
 J. E. Subotnik,  T. Van Voorhis,  J. M. Herbert,  A. I. Krylov,  
 P. M. W. Gill,  M. Head-Gordon

 Contributors to earlier versions of Q-Chem not listed above: 
 R. D. Adamson,  B. Austin,  J. Baker,  G. J. O. Beran,  K. Brandhorst,  
 S. T. Brown,  E. F. C. Byrd,  A. K. Chakraborty,  C.-L. Cheng,  
 Siu Hung Chien,  D. M. Chipman,  D. L. Crittenden,  H. Dachsel,  
 R. J. Doerksen,  A. D. Dutoi,  L. Fusti-Molnar,  W. A. Goddard III,  
 A. Golubeva-Zadorozhnaya,  S. R. Gwaltney,  G. Hawkins,  A. Heyden,  
 S. Hirata,  G. Kedziora,  F. J. Keil,  C. Kelley,  Jihan Kim,  R. A. King,  
 R. Z. Khaliullin,  P. P. Korambath,  W. Kurlancheek,  A. M. Lee,  M. S. Lee,  
 S. V. Levchenko,  Ching Yeh Lin,  D. Liotard,  R. C. Lochan,  I. Lotan,  
 P. E. Maslen,  N. Nair,  D. P. O'Neill,  D. Neuhauser,  E. Neuscamman,  
 C. M. Oana,  R. Olson,  B. Peters,  R. Peverati,  P. A. Pieniazek,  
 Y. M. Rhee,  J. Ritchie,  M. A. Rohrdanz,  E. Rosta,  N. J. Russ,  
 H. F. Schaefer III,  N. E. Schultz,  N. Shenvi,  A. C. Simmonett,  A. Sodt,  
 D. Stuck,  K. S. Thanthiriwatte,  V. Vanovschi,  Tao Wang,  A. Warshel,  
 C. F. Williams,  Q. Wu,  X. Xu,  W. Zhang

 Please cite Q-Chem as follows:
 Y. Shao et al., Mol. Phys. 113, 184-215 (2015)
 DOI: 10.1080/00268976.2014.952696

 Q-Chem 5.2.1 for Intel X86 EM64T Linux

 Parts of Q-Chem use Armadillo 8.300.2 (Tropical Shenanigans).
 http://arma.sourceforge.net/

 Q-Chem begins on Mon Feb  7 16:22:22 2022  

Host: 
0

     Scratch files written to /gpfs/fs0/scratch/a/aspuru/rhickman/descriptor_computation/qchem127956//
 Jul1719 |scratch|qcdevops|jenkins|workspace|build_RNUM -1
Processing $rem in /scinet/niagara/software/commercial/qc52/config/preferences:
	 MEM_TOTAL  4000 
NAlpha2: 110
NElect   110
Mult     1

Checking the input file for inconsistencies... 	...done.

--------------------------------------------------------------
User input:
--------------------------------------------------------------
$molecule
0 1
C         5.28635136490000   -0.93347531380000    0.01155441290000
C         3.97380093820000   -1.12702452790000    0.01160019780000
C         2.94100688630000   -0.09512621050000    0.00302130520000
C         3.21142568860000    1.27672299390000   -0.00202973340000
C         2.15082022170000    2.16526305870000   -0.00949023740000
C         0.85793885040000    1.67341198650000   -0.01122460540000
C         0.67614296260000    0.28928758180000   -0.00547572860000
C        -0.67614213120000   -0.28934994690000   -0.00551435820000
C        -0.85797366660000   -1.67347016880000   -0.01114862130000
C        -2.15087218420000   -2.16528349290000   -0.00949423390000
C        -3.21145724020000   -1.27671492500000   -0.00217905700000
C        -2.94100019340000    0.09512722130000    0.00279177900000
C        -3.97375202980000    1.12707202930000    0.01120345670000
C        -5.28631021940000    0.93358565290000    0.01210641750000
N        -1.69483444740000    0.56125208470000    0.00088255800000
N         1.69485385690000   -0.56129110250000    0.00109425440000
H         5.97329070680000   -1.76242179850000    0.01849503970000
H         5.73352410770000    0.04618755550000    0.00454315880000
H         3.57183247010000   -2.13123516310000    0.01841971410000
H         4.22746099260000    1.63722738280000    0.00021652490000
H         2.33208543350000    3.23107482060000   -0.01361464090000
H        -0.00519176950000    2.31792370850000   -0.01661529620000
H         0.00513529100000   -2.31801086300000   -0.01639201410000
H        -2.33216942960000   -3.23108869920000   -0.01355499280000
H        -4.22750146270000   -1.63719071260000   -0.00004939910000
H        -3.57173193950000    2.13126792610000    0.01715657440000
H        -5.73353413910000   -0.04605852020000    0.00607228000000
H        -5.97322269550000    1.76255748230000    0.01884376070000
$end

$rem
BASIS = 6-31G*
GUI = 2
METHOD = B3LYP
PRINT_ORBITALS false
MOLDEN_FORMAT false
--------------------------------------------------------------
 ----------------------------------------------------------------
             Standard Nuclear Orientation (Angstroms)
    I     Atom           X                Y                Z
 ----------------------------------------------------------------
    1      C       5.2984425774     0.8622041463    -0.0114572115
    2      C       3.9886175626     1.0734110410    -0.0114952438
    3      C       2.9420213145     0.0555141193    -0.0029256004
    4      C       3.1939418491    -1.3198523055     0.0021065760
    5      C       2.1214672123    -2.1940294415     0.0095598001
    6      C       0.8353265059    -1.6848126304     0.0113057086
    7      C       0.6721861490    -0.2983655341     0.0055754991
    8      C      -0.6721842053     0.2984298360     0.0056270315
    9      C      -0.8353602194     1.6848730817     0.0112799619
   10      C      -2.1215185918     2.1940524231     0.0096371146
   11      C      -3.1939732599     1.3198467041     0.0023146573
   12      C      -2.9420144274    -0.0555130479    -0.0026750409
   13      C      -3.9885691549    -1.0734568033    -0.0110959686
   14      C      -5.2984027813    -0.8623126250    -0.0119911776
   15      N      -1.7022386590    -0.5383769426    -0.0007768404
   16      N       1.7022588152     0.5384178178    -0.0009875287
   17      H       5.9964824669     1.6818250084    -0.0183898379
   18      H       5.7323823413    -0.1233917564    -0.0044604422
   19      H       3.6002085434     2.0829437458    -0.0183001377
   20      H       4.2050303464    -1.6940062376    -0.0001484143
   21      H       2.2883634365    -3.2621855906     0.0136696644
   22      H      -0.0364050330    -2.3176427843     0.0166914937
   23      H       0.0363500900     2.3177323585     0.0165282609
   24      H      -2.2884469037     3.2622023421     0.0137124127
   25      H      -4.2050710767     1.6939722145     0.0001937311
   26      H      -3.6001083684    -2.0829753000    -0.0170637087
   27      H      -5.7323939194     0.1232651027    -0.0059425553
   28      H      -5.9964162010    -1.6819590132    -0.0187365216
 ----------------------------------------------------------------
 Molecular Point Group                 C1    NOp =  1
 Largest Abelian Subgroup              C1    NOp =  1
 Nuclear Repulsion Energy =         951.09587321 hartrees
 There are       55 alpha and       55 beta electrons
 Requested basis set is 6-31G(d)
 There are 88 shells and 264 basis functions

 Total QAlloc Memory Limit   4000 MB
 Mega-Array Size       188 MB
 MEM_STATIC part       192 MB
 A cutoff of  1.0D-08 yielded   2195 shell pairs
 There are     21892 function pairs
 Smallest overlap matrix eigenvalue = 5.66E-04

 Scale SEOQF with 1.000000e-02/1.000000e-01/1.000000e+00

 Standard Electronic Orientation quadrupole field applied
 Nucleus-field energy     =     0.0000000176 hartrees
 Guess from superposition of atomic densities
 Warning:  Energy on first SCF cycle will be non-variational
 SAD guess density has 110.000000 electrons

 -----------------------------------------------------------------------
  General SCF calculation program by
  Eric Jon Sundstrom, Paul Horn, Yuezhi Mao, Dmitri Zuev, Alec White,
  David Stuck, Shaama M.S., Shane Yost, Joonho Lee, David Small,
  Daniel Levine, Susi Lehtola, Hugh Burton, Evgeny Epifanovsky,
  Bang C. Huynh
 -----------------------------------------------------------------------
 Exchange:     0.2000 Hartree-Fock + 0.0800 Slater + 0.7200 B88
 Correlation:  0.1900 VWN1RPA + 0.8100 LYP
 Using SG-1 standard quadrature grid
 A restricted SCF calculation will be
 performed using DIIS
 SCF converges when DIIS error is below 1.0e-05
 ---------------------------------------
  Cycle       Energy         DIIS error
 ---------------------------------------
    1    -654.1413863182      5.09e-02  
    2    -649.9851278647      4.64e-03  
    3    -650.0115453803      4.50e-03  
    4    -650.1833056230      7.47e-04  
    5    -650.1869692252      2.78e-04  
    6    -650.1875469446      6.87e-05  
    7    -650.1875736616      3.97e-05  
    8    -650.1875883377      7.43e-06  Convergence criterion met
 ---------------------------------------
 SCF time:   CPU 40.18s  wall 40.00s 
 SCF   energy in the final basis set =     -650.1875883377
 Total energy in the final basis set =     -650.1875883377
 
 --------------------------------------------------------------
 
                    Orbital Energies (a.u.)
 --------------------------------------------------------------
 
 Alpha MOs
 -- Occupied --
-14.3225 -14.3225 -10.2253 -10.2253 -10.2215 -10.2212 -10.2023 -10.2023
-10.1944 -10.1944 -10.1879 -10.1879 -10.1877 -10.1877 -10.1843 -10.1843
 -0.9585  -0.9410  -0.8157  -0.8064  -0.7996  -0.7913  -0.7508  -0.7234
 -0.6549  -0.6541  -0.6267  -0.6112  -0.5744  -0.5541  -0.5177  -0.5082
 -0.4969  -0.4812  -0.4680  -0.4550  -0.4442  -0.4276  -0.4226  -0.4165
 -0.4123  -0.4012  -0.3954  -0.3800  -0.3636  -0.3577  -0.3509  -0.3205
 -0.3026  -0.2918  -0.2720  -0.2636  -0.2465  -0.2385  -0.2200
 -- Virtual --
 -0.0495  -0.0421  -0.0285   0.0102   0.0535   0.0846   0.1012   0.1018
  0.1215   0.1264   0.1320   0.1388   0.1595   0.1775   0.1809   0.2025
  0.2057   0.2079   0.2219   0.2230   0.2550   0.2709   0.2882   0.2940
  0.2959   0.3055   0.3161   0.3393   0.3556   0.3566   0.4049   0.4113
  0.4241   0.4491   0.4589   0.4754   0.4936   0.5076   0.5151   0.5346
  0.5401   0.5413   0.5507   0.5645   0.5759   0.5828   0.5870   0.5880
  0.5950   0.5971   0.6090   0.6232   0.6302   0.6310   0.6373   0.6379
  0.6426   0.6568   0.6618   0.6768   0.6792   0.6904   0.6962   0.7041
  0.7229   0.7384   0.8066   0.8085   0.8157   0.8238   0.8249   0.8425
  0.8449   0.8794   0.8820   0.8840   0.8843   0.8994   0.9045   0.9130
  0.9178   0.9432   0.9554   0.9578   0.9607   0.9612   0.9764   1.0001
  1.0071   1.0218   1.0258   1.0822   1.1033   1.1246   1.1279   1.1802
  1.1894   1.1919   1.2237   1.2249   1.2349   1.2605   1.2767   1.2797
  1.2815   1.3203   1.3235   1.3459   1.3786   1.3845   1.4442   1.4450
  1.4506   1.4654   1.4700   1.4738   1.4906   1.5026   1.5147   1.5280
  1.5611   1.6031   1.6391   1.6621   1.6752   1.6752   1.7074   1.7289
  1.7773   1.7927   1.8108   1.8263   1.8283   1.8433   1.8731   1.8889
  1.9446   1.9525   1.9667   1.9685   1.9831   1.9970   2.0310   2.0350
  2.0471   2.0936   2.1019   2.1391   2.1506   2.1698   2.1756   2.1951
  2.2035   2.2183   2.2191   2.2445   2.2517   2.2535   2.2756   2.2775
  2.3403   2.3546   2.3747   2.3943   2.4211   2.4407   2.4534   2.5101
  2.5182   2.5717   2.6034   2.6150   2.6273   2.6286   2.6582   2.6854
  2.6878   2.7023   2.7282   2.7614   2.7636   2.7825   2.8376   2.8610
  2.8936   2.9428   2.9445   2.9725   3.1246   3.2274   3.3375   3.4304
  3.5296   4.0503   4.0695   4.1046   4.1078   4.1376   4.1587   4.1812
  4.2126   4.2510   4.2909   4.3708   4.4517   4.4603   4.5104   4.6524
  4.7408
 --------------------------------------------------------------
 
          Ground-State Mulliken Net Atomic Charges

     Atom                 Charge (a.u.)
  ----------------------------------------
      1 C                    -0.347327
      2 C                    -0.093731
      3 C                     0.316721
      4 C                    -0.175477
      5 C                    -0.099307
      6 C                    -0.153551
      7 C                     0.265794
      8 C                     0.265808
      9 C                    -0.153555
     10 C                    -0.099308
     11 C                    -0.175477
     12 C                     0.316722
     13 C                    -0.093729
     14 C                    -0.347329
     15 N                    -0.584634
     16 N                    -0.584634
     17 H                     0.148977
     18 H                     0.142925
     19 H                     0.141535
     20 H                     0.134693
     21 H                     0.140331
     22 H                     0.163047
     23 H                     0.163046
     24 H                     0.140331
     25 H                     0.134693
     26 H                     0.141535
     27 H                     0.142924
     28 H                     0.148978
  ----------------------------------------
  Sum of atomic charges =     0.000000

 -----------------------------------------------------------------
                    Cartesian Multipole Moments
 -----------------------------------------------------------------
    Charge (ESU x 10^10)
                 0.0000
    Dipole Moment (Debye)
         X      -0.0001      Y      -0.0000      Z       0.0113
       Tot       0.0113
    Quadrupole Moments (Debye-Ang)
        XX     -75.5279     XY      -5.6375     YY     -81.9157
        XZ       0.0009     YZ      -0.0016     ZZ     -96.8607
    Octopole Moments (Debye-Ang^2)
       XXX      -0.0016    XXY      -0.0002    XYY      -0.0005
       YYY       0.0001    XXZ      -0.2394    XYZ      -0.2410
       YYZ       0.0753    XZZ       0.0001    YZZ       0.0001
       ZZZ       0.0237
    Hexadecapole Moments (Debye-Ang^3)
      XXXX   -4783.7225   XXXY      -4.3022   XXYY    -955.9221
      XYYY     -20.9859   YYYY    -920.8819   XXXZ       0.0874
      XXYZ      -0.0253   XYYZ      -0.0139   YYYZ      -0.0093
      XXZZ   -1000.8282   XYZZ      -1.7804   YYZZ    -202.5528
      XZZZ      -0.0022   YZZZ      -0.0022   ZZZZ     -97.2107
 -----------------------------------------------------------------
Archival summary:
1\1\nia1977.scinet.local\SP\ProcedureUnspecified\6-31G*\21412\rhickman\MonFeb716:23:022022MonFeb716:23:022022\0\\#,ProcedureUnspecified,6-31G*,\\0,1\N\C,1,1.32714\C,1,1.33049,2,119.63\C,2,1.39602,1,122.378,3,0.0362035,0\H,4,1.07723,2,119.268,1,179.99,0\C,4,1.38328,2,118.31,1,-0.0220159,0\H,6,1.08112,4,120.48,2,-179.99,0\C,6,1.38364,4,119.217,2,-0.00917969,0\H,8,1.0781,6,120.51,4,-179.956,0\C,3,1.45999,1,114.514,2,179.946,0\H,10,1.0817,3,113.161,1,-0.141581,0\C,10,1.32674,3,126.636,1,179.863,0\H,12,1.07661,10,121.26,3,179.987,0\H,12,1.07692,10,122.922,3,-0.0253232,0\C,2,1.47088,1,116.972,3,-179.92,0\N,15,1.32714,2,116.973,1,179.372,0\C,16,1.33049,15,119.63,2,-179.923,0\C,15,1.39602,2,120.648,1,-0.585792,0\H,18,1.07723,15,119.267,2,-0.054893,0\C,18,1.38328,15,118.31,2,179.933,0\H,20,1.08112,18,120.48,15,-179.989,0\C,20,1.38363,18,119.216,15,-0.00709351,0\H,22,1.0781,20,120.51,18,-179.953,0\C,17,1.45998,16,114.515,15,179.947,0\H,24,1.0817,17,113.161,16,-0.186534,0\C,24,1.32674,17,126.636,16,179.81,0\H,26,1.07661,24,121.259,17,179.988,0\H,26,1.07692,24,122.922,17,-0.0220816,0\\\@

 Total job time:  40.53s(wall), 40.40s(cpu) 
 Mon Feb  7 16:23:02 2022

        *************************************************************
        *                                                           *
        *  Thank you very much for using Q-Chem.  Have a nice day.  *
        *                                                           *
        *************************************************************


