23
 energy: -50.744028164987 gnorm: 0.000085293460 xtb: 6.5.0 (unknown)
C           -2.77341219500000        2.79842888920000        0.21473851260000
C           -2.30840696390000        1.72442098410000       -0.40791704740000
C           -0.96450246410000        1.17754568740000       -0.23668890150000
C            0.11572336730000        2.03379310950000       -0.02102221740000
C            1.40924390890000        1.56166246480000        0.06281265420000
C            1.64520240640000        0.20183793720000       -0.09650920840000
C            3.03862230740000       -0.35127536880000       -0.01550458420000
F            3.98708006510000        0.58106072460000       -0.17741048950000
F            3.28255018520000       -0.93436616610000        1.17553150520000
F            3.26990249170000       -1.29695938370000       -0.94258999630000
C            0.59103408840000       -0.67169823070000       -0.30752031370000
C           -0.71757088380000       -0.20118753830000       -0.35858677600000
C           -1.78094124330000       -1.19141341820000       -0.53253464200000
C           -2.92774572540000       -1.22319289490000        0.12617767800000
F           -3.33479141630000       -0.38297942940000        1.06628570460000
F           -3.85021153110000       -2.16311080160000       -0.05001179500000
H           -3.77010158630000        3.16252507710000        0.03760485300000
H           -2.19189297600000        3.33382353260000        0.94595100150000
H           -2.94368412930000        1.18802162340000       -1.10143361480000
H           -0.06716079800000        3.09379978000000        0.05833570390000
H            2.23263494280000        2.23863815400000        0.22860566900000
H            0.78554081210000       -1.72778642440000       -0.42077311110000
H           -1.59197561270000       -2.00980326410000       -1.21135480390000
