25
 energy: -44.384125085323 gnorm: 0.000079005152 xtb: 6.4.1 (23d549d)
C         0.95789436010000   -3.85772785100000    0.17606813750000
C         1.50005759620000   -2.66366543810000   -0.02949646620000
C         0.79125445480000   -1.39045702610000   -0.02431994860000
C        -0.59194209700000   -1.27751827900000    0.04515209170000
C        -1.23319327800000   -0.04608786900000    0.03152253340000
C        -2.72155036370000   -0.07222582450000    0.03968773570000
O        -3.36511793120000   -0.90734154550000    0.61234481090000
O        -3.33709125170000    0.89464714240000   -0.67654593490000
C        -0.48467622650000    1.14355489520000    0.01139050720000
N        -1.10110413780000    2.38285778430000    0.06808494880000
C         0.91828060460000    1.06555723120000   -0.08660229300000
C         1.72336806730000    2.29007634900000   -0.19100677970000
C         2.86113429210000    2.50496730260000    0.45212878730000
C         1.50773292480000   -0.19148727710000   -0.10968743500000
F         2.84955392730000   -0.26211712410000   -0.23321394400000
H         1.55930546470000   -4.74983364000000    0.15749709400000
H        -0.09046452050000   -3.99711523960000    0.37546560870000
H         2.56436064710000   -2.58872567320000   -0.20942427110000
H        -1.21085472810000   -2.15855881360000    0.09250885650000
H        -2.70782778900000    1.44654359450000   -1.16288496460000
H        -1.98057805740000    2.41746009780000    0.56261158160000
H        -0.48656724000000    3.14473094550000    0.31158373860000
H         1.33031119930000    3.04532947070000   -0.86202310650000
H         3.27993551040000    1.78352400210000    1.13226158220000
H         3.41691033610000    3.41728149690000    0.31945929810000
