41
 energy: -72.310200222594 gnorm: 0.000022407391 xtb: 6.4.1 (23d549d)
C         2.61815286060000   -5.46200261510000    1.22519659940000
O         1.85323123020000   -4.28818340620000    1.36173889810000
C         2.15729597640000   -3.21864774440000    0.57952727940000
C         1.36621257440000   -2.08736529580000    0.77940492780000
C         1.56010084310000   -0.94333859030000    0.02247057520000
N         0.76078625650000    0.20272655090000    0.20302911260000
C         1.49758376880000    1.38883027900000    0.40331257710000
C         2.54125286820000    1.70746697870000   -0.46388845160000
S         2.94104830040000    0.59145996160000   -1.78252038890000
C         3.27182825630000    2.87287630040000   -0.29395898190000
C         2.97460669830000    3.72277339330000    0.75525024680000
C         1.97362219170000    3.38881473040000    1.65374553710000
C         1.24771588430000    2.22346229910000    1.48802145530000
C        -0.61676503090000    0.19002397160000    0.07848294400000
C        -1.31046478010000   -0.99300113060000   -0.20255207110000
C        -2.67974212280000   -0.99217648030000   -0.33608026350000
C        -3.42923000140000    0.18017827000000   -0.21016365670000
C        -4.87059120300000    0.10026532420000   -0.34205142380000
C        -5.76613307650000    1.07125246950000   -0.23182680210000
F        -5.55455525730000    2.35890298020000    0.02849429160000
F        -7.07923843550000    0.87248669450000   -0.37350524470000
C        -2.73007790670000    1.36820940180000    0.01425751120000
C        -1.36006998070000    1.37477699650000    0.14770408700000
C         2.61535202180000   -0.90633039240000   -0.89026463730000
C         3.40917325370000   -2.02203731540000   -1.08239638000000
C         3.17509859270000   -3.18444504000000   -0.36934076300000
H         2.20459433160000   -6.16675341380000    1.94461265270000
H         3.67256424260000   -5.28376254990000    1.45859219880000
H         2.53333517720000   -5.88223010660000    0.21801725260000
H         0.59474358440000   -2.12282078840000    1.53195352030000
H         4.06280794330000    3.10400853750000   -0.99042248830000
H         3.53533045860000    4.63601415140000    0.88096134600000
H         1.75874808740000    4.03565677870000    2.49056031510000
H         0.47665637730000    1.95226333000000    2.19336499830000
H        -0.77249206910000   -1.91718697870000   -0.33925084020000
H        -3.18463758340000   -1.92354906170000   -0.54786281470000
H        -5.28115332710000   -0.87667276590000   -0.55424117580000
H        -3.25711015360000    2.30598258430000    0.07789438010000
H        -0.85814817370000    2.31939760300000    0.28466335010000
H         4.21015606970000   -1.98078415640000   -1.80392035900000
H         3.80000198070000   -4.04321186090000   -0.55133220020000
