
Running Job 1 of 1 fragments/A030/conf-3/spe_input.inp
qchem fragments/A030/conf-3/spe_input.inp_87802.0 /gpfs/fs0/scratch/a/aspuru/rhickman/descriptor_computation/qchem87802/ 0
/scinet/niagara/software/commercial/qc52/exe/qcprog.exe_s fragments/A030/conf-3/spe_input.inp_87802.0 /gpfs/fs0/scratch/a/aspuru/rhickman/descriptor_computation/qchem87802/
                  Welcome to Q-Chem
     A Quantum Leap Into The Future Of Chemistry


 Q-Chem 5.2, Q-Chem, Inc., Pleasanton, CA (2019)

 License issued to: SRG Alan Aspuru-Guzik, University of Toronto

 Yihan Shao,  Zhengting Gan,  E. Epifanovsky,  A. T. B. Gilbert,  M. Wormit,  
 J. Kussmann,  A. W. Lange,  A. Behn,  Jia Deng,  Xintian Feng,  D. Ghosh,  
 M. Goldey,  P. R. Horn,  L. D. Jacobson,  I. Kaliman,  T. Kus,  A. Landau,  
 Jie Liu,  E. I. Proynov,  R. M. Richard,  R. P. Steele,  E. J. Sundstrom,  
 H. L. Woodcock III,  P. M. Zimmerman,  D. Zuev,  B. Albrecht,  E. Alguire,  
 S. A. Baeppler,  D. Barton,  Z. Benda,  Y. A. Bernard,  E. J. Berquist,  
 K. B. Bravaya,  H. Burton,  D. Casanova,  Chun-Min Chang,  Yunqing Chen,  
 A. Chien,  K. D. Closser,  M. P. Coons,  S. Coriani,  S. Dasgupta,  
 A. L. Dempwolff,  M. Diedenhofen,  Hainam Do,  R. G. Edgar,  Po-Tung Fang,  
 S. Faraji,  S. Fatehi,  Qingguo Feng,  K. D. Fenk,  J. Fosso-Tande,  
 J. Gayvert,  Qinghui Ge,  A. Ghysels,  G. Gidofalvi,  J. Gomes,  
 J. Gonthier,  A. Gunina,  D. Hait,  M. W. D. Hanson-Heine,  
 P. H. P. Harbach,  A. W. Hauser,  M. F. Herbst,  J. E. Herr,  
 E. G. Hohenstein,  Z. C. Holden,  Kerwin Hui,  B. C. Huynh,  T.-C. Jagau,  
 Hyunjun Ji,  B. Kaduk,  K. Khistyaev,  Jaehoon Kim,  P. Klunzinger,  K. Koh,  
 D. Kosenkov,  L. Koulias,  T. Kowalczyk,  C. M. Krauter,  A. Kunitsa,  
 Ka Un Lao,  A. Laurent,  K. V. Lawler,  Joonho Lee,  D. Lefrancois,  
 S. Lehtola,  D. S. Levine,  Yi-Pei Li,  You-Sheng Lin,  Fenglai Liu,  
 E. Livshits,  A. Luenser,  P. Manohar,  E. Mansoor,  S. F. Manzer,  
 Shan-Ping Mao,  Yuezhi Mao,  N. Mardirossian,  A. V. Marenich,  
 T. Markovich,  L. A. Martinez-Martinez,  S. A. Maurer,  N. J. Mayhall,  
 S. C. McKenzie,  J.-M. Mewes,  P. Morgante,  A. F. Morrison,  
 J. W. Mullinax,  K. Nanda,  T. S. Nguyen-Beck,  R. Olivares-Amaya,  
 J. A. Parkhill,  Zheng Pei,  T. M. Perrine,  F. Plasser,  P. Pokhilko,  
 S. Prager,  A. Prociuk,  E. Ramos,  D. R. Rehn,  F. Rob,  M. Scheurer,  
 M. Schneider,  N. Sergueev,  S. M. Sharada,  S. Sharma,  D. W. Small,  
 T. Stauch,  T. Stein,  Yu-Chuan Su,  A. J. W. Thom,  A. Tkatchenko,  
 T. Tsuchimochi,  N. M. Tubman,  L. Vogt,  M. L. Vidal,  O. Vydrov,  
 M. A. Watson,  J. Wenzel,  M. de Wergifosse,  T. A. Wesolowski,  A. White,  
 J. Witte,  A. Yamada,  Jun Yang,  K. Yao,  S. Yeganeh,  S. R. Yost,  
 Zhi-Qiang You,  A. Zech,  Igor Ying Zhang,  Xing Zhang,  Yan Zhao,  
 Ying Zhu,  B. R. Brooks,  G. K. L. Chan,  C. J. Cramer,  M. S. Gordon,  
 W. J. Hehre,  A. Klamt,  M. W. Schmidt,  C. D. Sherrill,  D. G. Truhlar,  
 A. Aspuru-Guzik,  R. Baer,  A. T. Bell,  N. A. Besley,  Jeng-Da Chai,  
 A. E. DePrince, III,  R. A. DiStasio Jr.,  A. Dreuw,  B. D. Dunietz,  
 T. R. Furlani,  Chao-Ping Hsu,  Yousung Jung,  Jing Kong,  D. S. Lambrecht,  
 WanZhen Liang,  C. Ochsenfeld,  V. A. Rassolov,  L. V. Slipchenko,  
 J. E. Subotnik,  T. Van Voorhis,  J. M. Herbert,  A. I. Krylov,  
 P. M. W. Gill,  M. Head-Gordon

 Contributors to earlier versions of Q-Chem not listed above: 
 R. D. Adamson,  B. Austin,  J. Baker,  G. J. O. Beran,  K. Brandhorst,  
 S. T. Brown,  E. F. C. Byrd,  A. K. Chakraborty,  C.-L. Cheng,  
 Siu Hung Chien,  D. M. Chipman,  D. L. Crittenden,  H. Dachsel,  
 R. J. Doerksen,  A. D. Dutoi,  L. Fusti-Molnar,  W. A. Goddard III,  
 A. Golubeva-Zadorozhnaya,  S. R. Gwaltney,  G. Hawkins,  A. Heyden,  
 S. Hirata,  G. Kedziora,  F. J. Keil,  C. Kelley,  Jihan Kim,  R. A. King,  
 R. Z. Khaliullin,  P. P. Korambath,  W. Kurlancheek,  A. M. Lee,  M. S. Lee,  
 S. V. Levchenko,  Ching Yeh Lin,  D. Liotard,  R. C. Lochan,  I. Lotan,  
 P. E. Maslen,  N. Nair,  D. P. O'Neill,  D. Neuhauser,  E. Neuscamman,  
 C. M. Oana,  R. Olson,  B. Peters,  R. Peverati,  P. A. Pieniazek,  
 Y. M. Rhee,  J. Ritchie,  M. A. Rohrdanz,  E. Rosta,  N. J. Russ,  
 H. F. Schaefer III,  N. E. Schultz,  N. Shenvi,  A. C. Simmonett,  A. Sodt,  
 D. Stuck,  K. S. Thanthiriwatte,  V. Vanovschi,  Tao Wang,  A. Warshel,  
 C. F. Williams,  Q. Wu,  X. Xu,  W. Zhang

 Please cite Q-Chem as follows:
 Y. Shao et al., Mol. Phys. 113, 184-215 (2015)
 DOI: 10.1080/00268976.2014.952696

 Q-Chem 5.2.1 for Intel X86 EM64T Linux

 Parts of Q-Chem use Armadillo 8.300.2 (Tropical Shenanigans).
 http://arma.sourceforge.net/

 Q-Chem begins on Mon Feb  7 14:54:47 2022  

Host: 
0

     Scratch files written to /gpfs/fs0/scratch/a/aspuru/rhickman/descriptor_computation/qchem87802//
 Jul1719 |scratch|qcdevops|jenkins|workspace|build_RNUM -1
Processing $rem in /scinet/niagara/software/commercial/qc52/config/preferences:
	 MEM_TOTAL  4000 
NAlpha2: 222
NElect   222
Mult     1

Checking the input file for inconsistencies... 	...done.

--------------------------------------------------------------
User input:
--------------------------------------------------------------
$molecule
0 1
C        -1.20952874990000   -1.49456779440000   -3.19568736000000
O        -0.26459688450000   -1.89640577700000   -2.21480339100000
C        -0.66188706260000   -2.86828301650000   -1.38107787180000
C         0.40918846910000   -3.23752774950000   -0.41465373170000
C         1.16397056560000   -2.28488012750000    0.28243406690000
N         0.87009302010000   -0.91660129430000    0.19884248740000
C         1.90850953080000    0.00437533660000    0.11543205530000
C         1.80001724400000    1.25614549430000    0.72100487650000
C         2.84452675360000    2.16137945970000    0.62263006110000
C         2.68031029430000    3.49052739500000    1.30221726270000
F         1.53519168240000    4.10349843680000    0.94983462000000
F         2.63518943240000    3.36968626610000    2.64420202310000
F         3.66940297240000    4.35305803570000    1.03591045510000
C         4.01203889010000    1.84554203120000   -0.05725836230000
C         4.11860805940000    0.59752076750000   -0.65079834440000
C         3.08405984860000   -0.31213717170000   -0.57196308020000
C        -0.46538570640000   -0.49705860400000    0.21779712620000
C        -1.41300071400000   -1.19696423270000    0.96518103550000
C        -2.73380870300000   -0.80683757760000    0.95319822070000
C        -3.15924653550000    0.29226097850000    0.20230091530000
C        -4.56959251950000    0.63600500260000    0.22469929620000
C        -5.20035749610000    1.57304797410000   -0.46873513440000
F        -4.68702531190000    2.42050808840000   -1.35400972810000
F        -6.50940911650000    1.79652696840000   -0.36810588910000
C        -2.20139245250000    0.99800623080000   -0.53097461580000
C        -0.87919219230000    0.60973606780000   -0.52432218690000
C         2.19152314300000   -2.72186885500000    1.11827313580000
C         2.45695709980000   -4.06919654490000    1.26489274960000
C         1.68453701000000   -5.01134602580000    0.60280435050000
C         0.66166776080000   -4.59195605660000   -0.22649242870000
O        -1.73205665850000   -3.41457684400000   -1.45487284410000
H        -0.69920567000000   -0.77793928340000   -3.83347564680000
H        -2.07505174660000   -1.03247157580000   -2.71648801380000
H        -1.54387593110000   -2.35773767620000   -3.77452371970000
H         0.90834478940000    1.52061900210000    1.26905291290000
H         4.81587876660000    2.56077023270000   -0.12195034020000
H         5.01733283260000    0.33838398190000   -1.18858751310000
H         3.16998918450000   -1.27595386640000   -1.05032471590000
H        -1.10884333070000   -2.04881152110000    1.55484195770000
H        -3.45281802450000   -1.36343313440000    1.53492548830000
H        -5.19720253260000    0.05106272980000    0.88135600040000
H        -2.48679539700000    1.85274722910000   -1.12163113110000
H        -0.15804024050000    1.15407073460000   -1.11500462300000
H         2.77175147360000   -1.99053556870000    1.66141877090000
H         3.25738039390000   -4.38587708280000    1.91633132620000
H         1.87872759540000   -6.06424143770000    0.73371038260000
H         0.04886541830000   -5.30624171970000   -0.75501980230000
$end

$rem
BASIS = 6-31G*
GUI = 2
METHOD = B3LYP
PRINT_ORBITALS false
MOLDEN_FORMAT false
--------------------------------------------------------------
 ----------------------------------------------------------------
             Standard Nuclear Orientation (Angstroms)
    I     Atom           X                Y                Z
 ----------------------------------------------------------------
    1      C      -2.0570373570    -1.5135998510    -2.6599766798
    2      O      -1.0188083880    -1.9739312057    -1.8075219847
    3      C      -1.4023994020    -2.7432700244    -0.7787077101
    4      C      -0.2397341137    -3.1983326247     0.0328633238
    5      C       0.7894037315    -2.3365304229     0.4345313019
    6      N       0.7222737070    -0.9569111327     0.1943590656
    7      C       1.8648960293    -0.2740170176    -0.2075538114
    8      C       2.0936071909     1.0374518701     0.2085688952
    9      C       3.2364589104     1.7020546133    -0.2065448156
   10      C       3.4392553261     3.1085396060     0.2793704272
   11      F       2.3684967629     3.8880943870     0.0406779409
   12      F       3.6414210142     3.1587080101     1.6113515582
   13      F       4.4880195891     3.7225562862    -0.2829993664
   14      C       4.1746090367     1.0850735703    -1.0215876805
   15      C       3.9470681681    -0.2209437732    -1.4262450966
   16      C       2.8091999123    -0.8941210545    -1.0311871946
   17      C      -0.4914844022    -0.2843157174     0.3795223343
   18      C      -1.3770443362    -0.6911925877     1.3778507447
   19      C      -2.5877930261    -0.0537725601     1.5348840436
   20      C      -2.9601829050     1.0106009662     0.7094771602
   21      C      -4.2584324096     1.6245085672     0.9225572328
   22      C      -4.8452082465     2.5782217658     0.2134094712
   23      F      -4.3810399707     3.1975854118    -0.8665656066
   24      F      -6.0506539444     3.0644597397     0.5035104072
   25      C      -2.0609457584     1.4228245393    -0.2777908328
   26      C      -0.8495947377     0.7863071703    -0.4405355590
   27      C       1.8726065170    -2.8644632848     1.1369620921
   28      C       1.9283595899    -4.2106443576     1.4401658431
   29      C       0.8909314611    -5.0546225468     1.0739921393
   30      C      -0.1894509659    -4.5439640118     0.3798132954
   31      O      -2.5430326532    -3.0738412681    -0.5816695232
   32      H      -1.5689514193    -0.9916843954    -3.4785952369
   33      H      -2.7186170278    -0.8372599704    -2.1148421169
   34      H      -2.6416647296    -2.3567731038    -3.0330336656
   35      H       1.3867826270     1.5347112388     0.8554961005
   36      H       5.0594818468     1.6159258867    -1.3331818196
   37      H       4.6636445366    -0.7131767691    -2.0652288737
   38      H       2.6330120078    -1.9058055106    -1.3637660723
   39      H      -1.1115863141    -1.5101996274     2.0294756576
   40      H      -3.2611622316    -0.3856165677     2.3105341580
   41      H      -4.8335439445     1.2560175295     1.7596419930
   42      H      -2.3080067066     2.2408514594    -0.9340720072
   43      H      -0.1780233646     1.1047355783    -1.2233901732
   44      H       2.6650138955    -2.2020785844     1.4529645088
   45      H       2.7762426649    -4.5987561035     1.9840406411
   46      H       0.9249635989    -6.1020913395     1.3291118425
   47      H      -1.0074933958    -5.1816335174     0.0810557203
 ----------------------------------------------------------------
 Molecular Point Group                 C1    NOp =  1
 Largest Abelian Subgroup              C1    NOp =  1
 Nuclear Repulsion Energy =        3092.54240644 hartrees
 There are      111 alpha and      111 beta electrons
 Requested basis set is 6-31G(d)
 There are 156 shells and 497 basis functions

 Total QAlloc Memory Limit   4000 MB
 Mega-Array Size       188 MB
 MEM_STATIC part       192 MB
 A cutoff of  1.0D-08 yielded   5319 shell pairs
 There are     56371 function pairs
 Smallest overlap matrix eigenvalue = 3.28E-04

 Scale SEOQF with 1.000000e-02/1.000000e-02/1.000000e-01

 Standard Electronic Orientation quadrupole field applied
 Nucleus-field energy     =    -0.0000000097 hartrees
 Guess from superposition of atomic densities
 Warning:  Energy on first SCF cycle will be non-variational
 SAD guess density has 222.000000 electrons

 -----------------------------------------------------------------------
  General SCF calculation program by
  Eric Jon Sundstrom, Paul Horn, Yuezhi Mao, Dmitri Zuev, Alec White,
  David Stuck, Shaama M.S., Shane Yost, Joonho Lee, David Small,
  Daniel Levine, Susi Lehtola, Hugh Burton, Evgeny Epifanovsky,
  Bang C. Huynh
 -----------------------------------------------------------------------
 Exchange:     0.2000 Hartree-Fock + 0.0800 Slater + 0.7200 B88
 Correlation:  0.1900 VWN1RPA + 0.8100 LYP
 Using SG-1 standard quadrature grid
 A restricted SCF calculation will be
 performed using DIIS
 SCF converges when DIIS error is below 1.0e-05
 ---------------------------------------
  Cycle       Energy         DIIS error
 ---------------------------------------
    1   -1597.9456739173      3.64e-02  
    2   -1589.9768034836      4.18e-03  
    3   -1589.3857691652      6.44e-03  
    4   -1590.3982381009      1.54e-03  
    5   -1590.4576821635      5.53e-04  
    6   -1590.4653178745      2.04e-04  
    7   -1590.4664772883      7.04e-05  
    8   -1590.4666134786      2.52e-05  
    9   -1590.4666311641      6.07e-06  Convergence criterion met
 ---------------------------------------
 SCF time:   CPU 208.82s  wall 209.00s 
 SCF   energy in the final basis set =    -1590.4666311641
 Total energy in the final basis set =    -1590.4666311641
 
 --------------------------------------------------------------
 
                    Orbital Energies (a.u.)
 --------------------------------------------------------------
 
 Alpha MOs
 -- Occupied --
-24.7438 -24.7330 -24.7231 -24.7168 -24.7141 -19.1927 -19.1357 -14.3807
-10.4269 -10.3549 -10.3162 -10.2455 -10.2446 -10.2367 -10.2351 -10.2158
-10.2095 -10.2057 -10.2039 -10.2038 -10.2038 -10.2033 -10.2027 -10.2016
-10.2013 -10.2002 -10.1973 -10.1946 -10.1935 -10.1925 -10.1920  -1.3025
 -1.2845  -1.2236  -1.2133  -1.2067  -1.1106  -1.0197  -0.9952  -0.8817
 -0.8763  -0.8609  -0.8104  -0.7912  -0.7843  -0.7741  -0.7584  -0.7565
 -0.7323  -0.7196  -0.6970  -0.6575  -0.6504  -0.6355  -0.6295  -0.6208
 -0.6159  -0.5997  -0.5774  -0.5762  -0.5748  -0.5722  -0.5663  -0.5488
 -0.5362  -0.5195  -0.5181  -0.5114  -0.5070  -0.4948  -0.4837  -0.4799
 -0.4764  -0.4674  -0.4609  -0.4553  -0.4537  -0.4507  -0.4498  -0.4457
 -0.4431  -0.4402  -0.4322  -0.4254  -0.4247  -0.4154  -0.4121  -0.4093
 -0.4060  -0.4018  -0.3948  -0.3914  -0.3868  -0.3828  -0.3783  -0.3764
 -0.3718  -0.3669  -0.3606  -0.3543  -0.3494  -0.3327  -0.3036  -0.2971
 -0.2842  -0.2760  -0.2703  -0.2610  -0.2583  -0.2386  -0.1909
 -- Virtual --
 -0.0433  -0.0349  -0.0314  -0.0155  -0.0027   0.0090   0.0406   0.0683
  0.0852   0.0914   0.0967   0.1119   0.1219   0.1261   0.1356   0.1397
  0.1444   0.1454   0.1483   0.1533   0.1567   0.1592   0.1609   0.1677
  0.1748   0.1778   0.1812   0.1851   0.1866   0.1901   0.2020   0.2106
  0.2270   0.2396   0.2427   0.2518   0.2636   0.2718   0.2833   0.2854
  0.2904   0.2934   0.3076   0.3125   0.3231   0.3292   0.3512   0.3585
  0.3679   0.3789   0.3932   0.4117   0.4153   0.4219   0.4403   0.4621
  0.4768   0.4785   0.4857   0.4925   0.4970   0.5072   0.5103   0.5159
  0.5211   0.5241   0.5323   0.5352   0.5429   0.5441   0.5512   0.5556
  0.5596   0.5650   0.5685   0.5711   0.5753   0.5821   0.5831   0.5860
  0.5878   0.5910   0.5962   0.5986   0.6004   0.6050   0.6068   0.6187
  0.6222   0.6264   0.6312   0.6409   0.6458   0.6511   0.6623   0.6690
  0.6735   0.6742   0.6939   0.6949   0.7109   0.7147   0.7293   0.7374
  0.7565   0.7697   0.7790   0.7816   0.8005   0.8089   0.8149   0.8190
  0.8240   0.8262   0.8314   0.8329   0.8392   0.8411   0.8444   0.8567
  0.8649   0.8736   0.8757   0.8776   0.8845   0.8870   0.8926   0.9026
  0.9185   0.9204   0.9252   0.9525   0.9585   0.9657   0.9668   0.9770
  0.9896   0.9994   1.0035   1.0167   1.0220   1.0365   1.0453   1.0620
  1.0627   1.0750   1.0802   1.0859   1.1004   1.1055   1.1110   1.1182
  1.1263   1.1304   1.1420   1.1514   1.1606   1.1614   1.1725   1.1740
  1.1773   1.1876   1.1920   1.2075   1.2158   1.2180   1.2238   1.2370
  1.2486   1.2735   1.2772   1.2869   1.2898   1.2981   1.3138   1.3221
  1.3350   1.3390   1.3462   1.3494   1.3604   1.3699   1.3830   1.3861
  1.3897   1.4015   1.4044   1.4170   1.4304   1.4375   1.4456   1.4505
  1.4530   1.4544   1.4605   1.4654   1.4700   1.4764   1.4782   1.4820
  1.4873   1.4976   1.4995   1.5096   1.5222   1.5357   1.5660   1.5988
  1.6028   1.6343   1.6433   1.6593   1.6741   1.6893   1.6979   1.7013
  1.7137   1.7249   1.7360   1.7554   1.7619   1.7674   1.7747   1.7841
  1.7850   1.7957   1.7980   1.8085   1.8160   1.8331   1.8377   1.8390
  1.8539   1.8649   1.8696   1.8743   1.8798   1.8931   1.8977   1.9002
  1.9052   1.9133   1.9292   1.9316   1.9434   1.9513   1.9648   1.9669
  1.9746   1.9822   1.9868   1.9944   2.0035   2.0135   2.0180   2.0267
  2.0286   2.0369   2.0410   2.0462   2.0564   2.0594   2.0669   2.0743
  2.0904   2.0966   2.0985   2.1027   2.1142   2.1280   2.1294   2.1401
  2.1474   2.1585   2.1601   2.1672   2.1776   2.1838   2.1973   2.2035
  2.2176   2.2319   2.2399   2.2624   2.2739   2.2795   2.2855   2.2937
  2.2964   2.3037   2.3114   2.3208   2.3299   2.3338   2.3438   2.3538
  2.3703   2.4045   2.4189   2.4297   2.4562   2.4699   2.4884   2.4959
  2.5225   2.5254   2.5516   2.5662   2.5728   2.5822   2.6033   2.6216
  2.6282   2.6406   2.6494   2.6521   2.6577   2.6714   2.6760   2.6907
  2.7001   2.7233   2.7378   2.7536   2.7624   2.7682   2.7734   2.7817
  2.8009   2.8118   2.8346   2.8415   2.8523   2.9051   2.9219   2.9303
  2.9370   2.9450   2.9700   2.9976   3.0212   3.0387   3.0472   3.0547
  3.0618   3.1199   3.1291   3.1514   3.1566   3.2554   3.2954   3.3311
  3.4385   3.4687   3.4865   4.0100   4.0839   4.0884   4.0944   4.1077
  4.1151   4.1229   4.1430   4.1779   4.1830   4.2040   4.2498   4.2673
  4.2717   4.3407   4.3483   4.3634   4.3849   4.4086   4.4520   4.4650
  4.4922   4.5382   4.5596   4.7283   4.7413   4.7904   4.8233   4.8335
  5.2863   5.6380
 --------------------------------------------------------------
 
          Ground-State Mulliken Net Atomic Charges

     Atom                 Charge (a.u.)
  ----------------------------------------
      1 C                    -0.224070
      2 O                    -0.436388
      3 C                     0.541648
      4 C                     0.073230
      5 C                     0.253673
      6 N                    -0.649046
      7 C                     0.296491
      8 C                    -0.213679
      9 C                    -0.009731
     10 C                     0.777408
     11 F                    -0.267953
     12 F                    -0.266155
     13 F                    -0.267058
     14 C                    -0.166830
     15 C                    -0.142108
     16 C                    -0.157843
     17 C                     0.279153
     18 C                    -0.178219
     19 C                    -0.189289
     20 C                     0.197947
     21 C                    -0.297562
     22 C                     0.539922
     23 F                    -0.236992
     24 F                    -0.248233
     25 C                    -0.213696
     26 C                    -0.166067
     27 C                    -0.168654
     28 C                    -0.128984
     29 C                    -0.133335
     30 C                    -0.171739
     31 O                    -0.481834
     32 H                     0.161892
     33 H                     0.177344
     34 H                     0.168811
     35 H                     0.170878
     36 H                     0.150299
     37 H                     0.140766
     38 H                     0.156030
     39 H                     0.153081
     40 H                     0.136184
     41 H                     0.160827
     42 H                     0.143201
     43 H                     0.151079
     44 H                     0.152634
     45 H                     0.139347
     46 H                     0.136518
     47 H                     0.157102
  ----------------------------------------
  Sum of atomic charges =     0.000000

 -----------------------------------------------------------------
                    Cartesian Multipole Moments
 -----------------------------------------------------------------
    Charge (ESU x 10^10)
                 0.0000
    Dipole Moment (Debye)
         X       1.4552      Y      -2.8763      Z      -0.7774
       Tot       3.3159
    Quadrupole Moments (Debye-Ang)
        XX    -174.3862     XY     -12.1571     YY    -175.5170
        XZ      -3.7359     YZ      -4.0967     ZZ    -163.3733
    Octopole Moments (Debye-Ang^2)
       XXX      42.2201    XXY      -1.6881    XYY      14.1693
       YYY      11.1463    XXZ     -11.8138    XYZ     -15.6811
       YYZ       8.9806    XZZ     -22.8785    YZZ      22.3761
       ZZZ     -21.8915
    Hexadecapole Moments (Debye-Ang^3)
      XXXX   -8497.1512   XXXY      40.0416   XXYY   -2748.3540
      XYYY    -106.9288   YYYY   -6456.4191   XXXZ    -102.9455
      XXYZ     -22.7164   XYYZ      53.4157   YYYZ     -66.8730
      XXZZ   -1508.2526   XYZZ      13.7562   YYZZ   -1322.5186
      XZZZ      73.6040   YZZZ      62.4355   ZZZZ   -1266.8802
 -----------------------------------------------------------------
Archival summary:
1\1\nia1977.scinet.local\SP\ProcedureUnspecified\6-31G*\5212316\rhickman\MonFeb714:58:172022MonFeb714:58:172022\0\\#,ProcedureUnspecified,6-31G*,\\0,1\N\C,1,1.39049\C,2,1.39478,1,120.683\H,3,1.07953,2,120.301,1,0.472711,0\C,3,1.38569,2,119.791,1,-179.796,0\C,5,1.38747,3,121.357,2,-0.705534,0\H,6,1.07791,5,120.39,3,-179.842,0\C,6,1.38607,5,118.652,3,0.323044,0\H,8,1.07892,6,119.587,5,179.616,0\C,8,1.37985,6,120.762,5,0.206834,0\H,10,1.07942,8,120.241,6,179.049,0\C,1,1.39996,2,120.979,3,33.941,0\C,12,1.39514,1,120.321,2,-145.758,0\H,13,1.07975,12,119.802,1,1.81586,0\C,13,1.37727,12,120.306,1,-178.135,0\H,15,1.07943,13,119.212,12,179.76,0\C,12,1.39534,1,120.892,2,35.3523,0\H,17,1.07947,12,119.531,1,-0.468402,0\C,17,1.37805,12,120.704,1,178.262,0\H,19,1.07746,17,118.706,12,-179.514,0\C,15,1.39745,13,121.293,12,-0.150925,0\C,1,1.40198,2,119.568,3,-145.238,0\C,22,1.39479,1,119.731,2,43.1052,0\H,23,1.08006,22,119.012,1,-2.33384,0\C,23,1.38103,22,120.722,1,176.91,0\H,25,1.07951,23,119.523,22,179.954,0\C,25,1.38659,23,120.34,22,-1.37701,0\H,27,1.07863,25,120.333,23,-178.707,0\C,27,1.38199,25,119.514,23,1.2368,0\H,29,1.07938,27,120.878,25,179.799,0\C,29,1.39055,27,120.742,25,0.706344,0\C,21,1.4518,15,118.273,13,179.275,0\H,32,1.08039,21,116.456,15,3.9605,0\C,32,1.32543,21,128.435,15,-175.345,0\F,34,1.32869,32,127.999,21,0.148273,0\F,34,1.3318,32,123.152,21,179.774,0\C,31,1.48913,29,117.383,27,176.738,0\O,37,1.2038,31,124.519,29,43.2446,0\O,37,1.3407,31,111.727,29,-133.342,0\C,39,1.42004,37,115.944,31,178.664,0\H,40,1.08663,39,106.233,37,-174.886,0\H,40,1.09174,39,110.26,37,-54.8495,0\H,40,1.09192,39,110.125,37,65.3944,0\C,5,1.50181,3,117.621,2,-179.525,0\F,44,1.3391,5,113.535,3,-173.155,0\F,44,1.34581,5,112.189,3,-52.4213,0\F,44,1.34817,5,112.01,3,66.451,0\\\@

 Total job time:  210.35s(wall), 209.40s(cpu) 
 Mon Feb  7 14:58:17 2022

        *************************************************************
        *                                                           *
        *  Thank you very much for using Q-Chem.  Have a nice day.  *
        *                                                           *
        *************************************************************


