
Running Job 1 of 1 fragments/A028/conf-0/spe_input.inp
qchem fragments/A028/conf-0/spe_input.inp_153860.0 /gpfs/fs0/scratch/a/aspuru/rhickman/descriptor_computation/qchem153860/ 0
/scinet/niagara/software/commercial/qc52/exe/qcprog.exe_s fragments/A028/conf-0/spe_input.inp_153860.0 /gpfs/fs0/scratch/a/aspuru/rhickman/descriptor_computation/qchem153860/
                  Welcome to Q-Chem
     A Quantum Leap Into The Future Of Chemistry


 Q-Chem 5.2, Q-Chem, Inc., Pleasanton, CA (2019)

 License issued to: SRG Alan Aspuru-Guzik, University of Toronto

 Yihan Shao,  Zhengting Gan,  E. Epifanovsky,  A. T. B. Gilbert,  M. Wormit,  
 J. Kussmann,  A. W. Lange,  A. Behn,  Jia Deng,  Xintian Feng,  D. Ghosh,  
 M. Goldey,  P. R. Horn,  L. D. Jacobson,  I. Kaliman,  T. Kus,  A. Landau,  
 Jie Liu,  E. I. Proynov,  R. M. Richard,  R. P. Steele,  E. J. Sundstrom,  
 H. L. Woodcock III,  P. M. Zimmerman,  D. Zuev,  B. Albrecht,  E. Alguire,  
 S. A. Baeppler,  D. Barton,  Z. Benda,  Y. A. Bernard,  E. J. Berquist,  
 K. B. Bravaya,  H. Burton,  D. Casanova,  Chun-Min Chang,  Yunqing Chen,  
 A. Chien,  K. D. Closser,  M. P. Coons,  S. Coriani,  S. Dasgupta,  
 A. L. Dempwolff,  M. Diedenhofen,  Hainam Do,  R. G. Edgar,  Po-Tung Fang,  
 S. Faraji,  S. Fatehi,  Qingguo Feng,  K. D. Fenk,  J. Fosso-Tande,  
 J. Gayvert,  Qinghui Ge,  A. Ghysels,  G. Gidofalvi,  J. Gomes,  
 J. Gonthier,  A. Gunina,  D. Hait,  M. W. D. Hanson-Heine,  
 P. H. P. Harbach,  A. W. Hauser,  M. F. Herbst,  J. E. Herr,  
 E. G. Hohenstein,  Z. C. Holden,  Kerwin Hui,  B. C. Huynh,  T.-C. Jagau,  
 Hyunjun Ji,  B. Kaduk,  K. Khistyaev,  Jaehoon Kim,  P. Klunzinger,  K. Koh,  
 D. Kosenkov,  L. Koulias,  T. Kowalczyk,  C. M. Krauter,  A. Kunitsa,  
 Ka Un Lao,  A. Laurent,  K. V. Lawler,  Joonho Lee,  D. Lefrancois,  
 S. Lehtola,  D. S. Levine,  Yi-Pei Li,  You-Sheng Lin,  Fenglai Liu,  
 E. Livshits,  A. Luenser,  P. Manohar,  E. Mansoor,  S. F. Manzer,  
 Shan-Ping Mao,  Yuezhi Mao,  N. Mardirossian,  A. V. Marenich,  
 T. Markovich,  L. A. Martinez-Martinez,  S. A. Maurer,  N. J. Mayhall,  
 S. C. McKenzie,  J.-M. Mewes,  P. Morgante,  A. F. Morrison,  
 J. W. Mullinax,  K. Nanda,  T. S. Nguyen-Beck,  R. Olivares-Amaya,  
 J. A. Parkhill,  Zheng Pei,  T. M. Perrine,  F. Plasser,  P. Pokhilko,  
 S. Prager,  A. Prociuk,  E. Ramos,  D. R. Rehn,  F. Rob,  M. Scheurer,  
 M. Schneider,  N. Sergueev,  S. M. Sharada,  S. Sharma,  D. W. Small,  
 T. Stauch,  T. Stein,  Yu-Chuan Su,  A. J. W. Thom,  A. Tkatchenko,  
 T. Tsuchimochi,  N. M. Tubman,  L. Vogt,  M. L. Vidal,  O. Vydrov,  
 M. A. Watson,  J. Wenzel,  M. de Wergifosse,  T. A. Wesolowski,  A. White,  
 J. Witte,  A. Yamada,  Jun Yang,  K. Yao,  S. Yeganeh,  S. R. Yost,  
 Zhi-Qiang You,  A. Zech,  Igor Ying Zhang,  Xing Zhang,  Yan Zhao,  
 Ying Zhu,  B. R. Brooks,  G. K. L. Chan,  C. J. Cramer,  M. S. Gordon,  
 W. J. Hehre,  A. Klamt,  M. W. Schmidt,  C. D. Sherrill,  D. G. Truhlar,  
 A. Aspuru-Guzik,  R. Baer,  A. T. Bell,  N. A. Besley,  Jeng-Da Chai,  
 A. E. DePrince, III,  R. A. DiStasio Jr.,  A. Dreuw,  B. D. Dunietz,  
 T. R. Furlani,  Chao-Ping Hsu,  Yousung Jung,  Jing Kong,  D. S. Lambrecht,  
 WanZhen Liang,  C. Ochsenfeld,  V. A. Rassolov,  L. V. Slipchenko,  
 J. E. Subotnik,  T. Van Voorhis,  J. M. Herbert,  A. I. Krylov,  
 P. M. W. Gill,  M. Head-Gordon

 Contributors to earlier versions of Q-Chem not listed above: 
 R. D. Adamson,  B. Austin,  J. Baker,  G. J. O. Beran,  K. Brandhorst,  
 S. T. Brown,  E. F. C. Byrd,  A. K. Chakraborty,  C.-L. Cheng,  
 Siu Hung Chien,  D. M. Chipman,  D. L. Crittenden,  H. Dachsel,  
 R. J. Doerksen,  A. D. Dutoi,  L. Fusti-Molnar,  W. A. Goddard III,  
 A. Golubeva-Zadorozhnaya,  S. R. Gwaltney,  G. Hawkins,  A. Heyden,  
 S. Hirata,  G. Kedziora,  F. J. Keil,  C. Kelley,  Jihan Kim,  R. A. King,  
 R. Z. Khaliullin,  P. P. Korambath,  W. Kurlancheek,  A. M. Lee,  M. S. Lee,  
 S. V. Levchenko,  Ching Yeh Lin,  D. Liotard,  R. C. Lochan,  I. Lotan,  
 P. E. Maslen,  N. Nair,  D. P. O'Neill,  D. Neuhauser,  E. Neuscamman,  
 C. M. Oana,  R. Olson,  B. Peters,  R. Peverati,  P. A. Pieniazek,  
 Y. M. Rhee,  J. Ritchie,  M. A. Rohrdanz,  E. Rosta,  N. J. Russ,  
 H. F. Schaefer III,  N. E. Schultz,  N. Shenvi,  A. C. Simmonett,  A. Sodt,  
 D. Stuck,  K. S. Thanthiriwatte,  V. Vanovschi,  Tao Wang,  A. Warshel,  
 C. F. Williams,  Q. Wu,  X. Xu,  W. Zhang

 Please cite Q-Chem as follows:
 Y. Shao et al., Mol. Phys. 113, 184-215 (2015)
 DOI: 10.1080/00268976.2014.952696

 Q-Chem 5.2.1 for Intel X86 EM64T Linux

 Parts of Q-Chem use Armadillo 8.300.2 (Tropical Shenanigans).
 http://arma.sourceforge.net/

 Q-Chem begins on Mon Feb  7 17:48:48 2022  

Host: 
0

     Scratch files written to /gpfs/fs0/scratch/a/aspuru/rhickman/descriptor_computation/qchem153860//
 Jul1719 |scratch|qcdevops|jenkins|workspace|build_RNUM -1
Processing $rem in /scinet/niagara/software/commercial/qc52/config/preferences:
	 MEM_TOTAL  4000 
NAlpha2: 174
NElect   174
Mult     1

Checking the input file for inconsistencies... 	...done.

--------------------------------------------------------------
User input:
--------------------------------------------------------------
$molecule
0 1
F        -6.79727562720000   -0.45245257150000   -0.19053961210000
C        -5.51614767770000   -0.07103968740000   -0.17420488830000
F        -5.46168370940000    1.24804052770000   -0.34662249230000
C        -4.51062991960000   -0.91875078700000   -0.00820001850000
C        -3.08881758180000   -0.64205062120000    0.03068886580000
C        -2.53670212480000    0.63069431690000   -0.14093370170000
C        -1.17707927760000    0.83006170460000   -0.08392555260000
C        -0.29703770620000   -0.23314880220000    0.16116626340000
N         1.06405659620000   -0.03789709840000    0.18789465120000
C         1.65076902500000    1.24576253090000    0.24999396140000
C         2.65831721420000    1.66087668820000   -0.62385723510000
C         3.23380654830000    0.85787660260000   -1.76605192110000
C         2.59732723110000   -0.50624823280000   -2.04416776840000
C         2.75893914630000   -1.39616255650000   -0.85156086380000
C         1.97149035900000   -1.12579770140000    0.26446797370000
C         2.09954252900000   -1.88030163990000    1.42189075170000
C         3.01310672910000   -2.91886358880000    1.46321243280000
C         3.79982356640000   -3.19472507780000    0.35748381630000
C         3.67663224990000   -2.43281079410000   -0.79190348500000
C         3.19242439720000    2.93563638860000   -0.44330261800000
C         2.75735332680000    3.78325467990000    0.55453874060000
C         1.76353597970000    3.35971195300000    1.42197984040000
C         1.22746420990000    2.09920686390000    1.27141207280000
C        -0.84574844750000   -1.51511521010000    0.29469756970000
C        -2.20647137400000   -1.70648722940000    0.23538878660000
H        -4.80313408030000   -1.95178486060000    0.11627787060000
H        -3.17477994100000    1.47821301100000   -0.33056398020000
H        -0.78306948920000    1.82191064650000   -0.24494216810000
H         4.30004961110000    0.70616428040000   -1.56457972160000
H         3.16287502050000    1.46852105510000   -2.67129263090000
H         3.08256733950000   -0.94954023550000   -2.91545963750000
H         1.53607079630000   -0.37662238330000   -2.27024113730000
H         1.48641511020000   -1.64972399530000    2.28080138410000
H         3.11469038040000   -3.50908467140000    2.36159807310000
H         4.51363989650000   -4.00411639770000    0.39215488680000
H         4.29258728500000   -2.64894835650000   -1.65306700790000
H         3.97004546270000    3.26517210180000   -1.11831331820000
H         3.19178143100000    4.76585041350000    0.65861407790000
H         1.41721526130000    4.00318442430000    2.21647043110000
H         0.46425635170000    1.74885494610000    1.95114427190000
H        -0.19656490550000   -2.36525880670000    0.43719211870000
H        -2.60067011750000   -2.70617436180000    0.34894138050000
$end

$rem
BASIS = 6-31G*
GUI = 2
METHOD = B3LYP
PRINT_ORBITALS false
MOLDEN_FORMAT false
--------------------------------------------------------------
 ----------------------------------------------------------------
             Standard Nuclear Orientation (Angstroms)
    I     Atom           X                Y                Z
 ----------------------------------------------------------------
    1      F       6.8977840375    -0.4187063052     0.2336656998
    2      C       5.6152288717    -0.0426386858     0.2080370694
    3      F       5.5541440450     1.2764879511     0.3778614717
    4      C       4.6143718846    -0.8947873364     0.0366729670
    5      C       3.1917224145    -0.6240523294    -0.0122830570
    6      C       2.6331987910     0.6466738042     0.1534634856
    7      C       1.2731792726     0.8403047767     0.0869388507
    8      C       0.3992206974    -0.2269515887    -0.1623000041
    9      N      -0.9624579061    -0.0373922223    -0.1985486181
   10      C      -1.5540425213     1.2437179543    -0.2667703203
   11      C      -2.5691839282     1.6560954526     0.5995562657
   12      C      -3.1490548812     0.8526074910     1.7391889194
   13      C      -2.5088324129    -0.5084029401     2.0238935203
   14      C      -2.6586952589    -1.4009536435     0.8317225959
   15      C      -1.8648449186    -1.1291730147    -0.2794164775
   16      C      -1.9819471166    -1.8861172083    -1.4364055015
   17      C      -2.8909067993    -2.9285268955    -1.4821470566
   18      C      -3.6839328401    -3.2058181233    -0.3812937557
   19      C      -3.5716676762    -2.4414971285     0.7676146804
   20      C      -3.1073273294     2.9283278561     0.4132523798
   21      C      -2.6690306950     3.7760901279    -0.5830538842
   22      C      -1.6676281650     3.3552378000    -1.4430490665
   23      C      -1.1273764870     2.0972183596    -1.2867420393
   24      C       0.9541203497    -1.5068501479    -0.2899636737
   25      C       2.3151912833    -1.6924774587    -0.2211444946
   26      H       4.9119819797    -1.9268038560    -0.0840869625
   27      H       3.2664684566     1.4971449480     0.3459712596
   28      H       0.8739901032     1.8307760119     0.2436204597
   29      H      -4.2132748018     0.6961400420     1.5307762451
   30      H      -3.0867715479     1.4650390924     2.6438584676
   31      H      -2.9981136633    -0.9522606241     2.8926336989
   32      H      -1.4496739061    -0.3740016918     2.2569102825
   33      H      -1.3639862867    -1.6544207526    -2.2915428715
   34      H      -2.9839721265    -3.5206511314    -2.3802031002
   35      H      -4.3941439535    -4.0182198550    -0.4194217746
   36      H      -4.1925310018    -2.6587616451     1.6249614744
   37      H      -3.8908505653     3.2557522915     1.0824401942
   38      H      -3.1068065104     4.7567016135    -0.6917151885
   39      H      -1.3186092820     3.9988248627    -2.2362650976
   40      H      -0.3581479711     1.7489103195    -1.9607135248
   41      H       0.3094375111    -2.3599141844    -0.4354074418
   42      H       2.7142809536    -2.6907074261    -0.3303487568
 ----------------------------------------------------------------
 Molecular Point Group                 C1    NOp =  1
 Largest Abelian Subgroup              C1    NOp =  1
 Nuclear Repulsion Energy =        2050.19367582 hartrees
 There are       87 alpha and       87 beta electrons
 Requested basis set is 6-31G(d)
 There are 134 shells and 409 basis functions

 Total QAlloc Memory Limit   4000 MB
 Mega-Array Size       188 MB
 MEM_STATIC part       192 MB
 A cutoff of  1.0D-08 yielded   4494 shell pairs
 There are     44359 function pairs
 Smallest overlap matrix eigenvalue = 3.42E-04

 Scale SEOQF with 1.000000e-02/1.000000e-01/1.000000e-01

 Standard Electronic Orientation quadrupole field applied
 Nucleus-field energy     =     0.0000000351 hartrees
 Guess from superposition of atomic densities
 Warning:  Energy on first SCF cycle will be non-variational
 SAD guess density has 174.000000 electrons

 -----------------------------------------------------------------------
  General SCF calculation program by
  Eric Jon Sundstrom, Paul Horn, Yuezhi Mao, Dmitri Zuev, Alec White,
  David Stuck, Shaama M.S., Shane Yost, Joonho Lee, David Small,
  Daniel Levine, Susi Lehtola, Hugh Burton, Evgeny Epifanovsky,
  Bang C. Huynh
 -----------------------------------------------------------------------
 Exchange:     0.2000 Hartree-Fock + 0.0800 Slater + 0.7200 B88
 Correlation:  0.1900 VWN1RPA + 0.8100 LYP
 Using SG-1 standard quadrature grid
 A restricted SCF calculation will be
 performed using DIIS
 SCF converges when DIIS error is below 1.0e-05
 ---------------------------------------
  Cycle       Energy         DIIS error
 ---------------------------------------
    1   -1109.4411256683      4.08e-02  
    2   -1102.6166693097      4.05e-03  
    3   -1102.4133961654      5.14e-03  
    4   -1102.9470461771      1.28e-03  
    5   -1102.9786869565      4.63e-04  
    6   -1102.9824188056      2.40e-04  
    7   -1102.9836924677      5.14e-05  
    8   -1102.9837394681      2.18e-05  
    9   -1102.9837496209      5.06e-06  Convergence criterion met
 ---------------------------------------
 SCF time:   CPU 143.76s  wall 144.00s 
 SCF   energy in the final basis set =    -1102.9837496209
 Total energy in the final basis set =    -1102.9837496209
 
 --------------------------------------------------------------
 
                    Orbital Energies (a.u.)
 --------------------------------------------------------------
 
 Alpha MOs
 -- Occupied --
-24.7310 -24.7202 -14.3590 -10.3402 -10.2258 -10.2255 -10.2224 -10.1971
-10.1951 -10.1947 -10.1918 -10.1915 -10.1909 -10.1909 -10.1905 -10.1903
-10.1866 -10.1865 -10.1858 -10.1853 -10.1851 -10.1813 -10.1786 -10.1747
-10.1745  -1.2701  -1.2099  -0.9769  -0.8670  -0.8632  -0.8459  -0.8081
 -0.7929  -0.7633  -0.7623  -0.7442  -0.7401  -0.7262  -0.6979  -0.6551
 -0.6424  -0.6204  -0.6137  -0.6059  -0.5990  -0.5793  -0.5702  -0.5576
 -0.5369  -0.5254  -0.5147  -0.5046  -0.4956  -0.4876  -0.4773  -0.4646
 -0.4611  -0.4471  -0.4440  -0.4409  -0.4366  -0.4295  -0.4277  -0.4217
 -0.4176  -0.4088  -0.4068  -0.3988  -0.3939  -0.3841  -0.3781  -0.3703
 -0.3623  -0.3619  -0.3547  -0.3499  -0.3425  -0.3346  -0.3291  -0.3192
 -0.2754  -0.2535  -0.2481  -0.2463  -0.2423  -0.2364  -0.1781
 -- Virtual --
 -0.0173  -0.0101  -0.0038  -0.0013   0.0075   0.0173   0.0833   0.0912
  0.0971   0.1027   0.1040   0.1303   0.1307   0.1389   0.1417   0.1496
  0.1592   0.1600   0.1657   0.1695   0.1720   0.1796   0.1838   0.1895
  0.1918   0.1975   0.1998   0.2025   0.2151   0.2168   0.2355   0.2480
  0.2590   0.2663   0.2874   0.2951   0.3092   0.3145   0.3212   0.3263
  0.3385   0.3423   0.3525   0.3628   0.3717   0.3943   0.3989   0.4285
  0.4360   0.4813   0.4914   0.4942   0.4972   0.5081   0.5110   0.5153
  0.5276   0.5315   0.5358   0.5407   0.5430   0.5492   0.5526   0.5653
  0.5732   0.5764   0.5788   0.5848   0.5882   0.5932   0.5964   0.5992
  0.6004   0.6029   0.6064   0.6101   0.6128   0.6151   0.6174   0.6200
  0.6249   0.6323   0.6387   0.6435   0.6511   0.6673   0.6685   0.6778
  0.6860   0.6890   0.7095   0.7188   0.7332   0.7430   0.7518   0.7781
  0.7867   0.7930   0.8056   0.8157   0.8206   0.8270   0.8321   0.8364
  0.8412   0.8415   0.8455   0.8488   0.8559   0.8587   0.8631   0.8796
  0.8882   0.8944   0.8986   0.9056   0.9105   0.9184   0.9386   0.9402
  0.9503   0.9585   0.9625   0.9733   0.9917   0.9920   1.0048   1.0282
  1.0321   1.0407   1.0550   1.0641   1.0674   1.0839   1.1058   1.1089
  1.1296   1.1308   1.1446   1.1548   1.1693   1.1724   1.1775   1.1901
  1.2015   1.2030   1.2216   1.2330   1.2425   1.2454   1.2583   1.2655
  1.2766   1.2919   1.3077   1.3215   1.3540   1.3582   1.3705   1.3898
  1.4087   1.4162   1.4210   1.4411   1.4440   1.4506   1.4588   1.4657
  1.4705   1.4756   1.4833   1.4871   1.4957   1.5004   1.5061   1.5127
  1.5194   1.5251   1.5284   1.5597   1.6120   1.6245   1.6621   1.6777
  1.6934   1.7238   1.7440   1.7656   1.7816   1.7929   1.7957   1.8004
  1.8088   1.8131   1.8248   1.8360   1.8433   1.8487   1.8588   1.8700
  1.8751   1.8869   1.8998   1.9054   1.9121   1.9199   1.9254   1.9409
  1.9432   1.9528   1.9635   1.9727   1.9780   1.9843   1.9934   2.0065
  2.0251   2.0264   2.0309   2.0414   2.0512   2.0660   2.0809   2.0914
  2.1041   2.1171   2.1300   2.1531   2.1555   2.1636   2.1686   2.1737
  2.1910   2.2022   2.2131   2.2195   2.2409   2.2497   2.2644   2.2706
  2.2819   2.2862   2.2969   2.3127   2.3216   2.3365   2.3393   2.3497
  2.3526   2.3588   2.3755   2.3872   2.4287   2.4543   2.4635   2.4946
  2.5087   2.5318   2.5486   2.5783   2.5950   2.6118   2.6279   2.6389
  2.6482   2.6571   2.6735   2.6824   2.6832   2.7000   2.7041   2.7351
  2.7425   2.7572   2.7695   2.7810   2.8035   2.8211   2.8246   2.8348
  2.8411   2.8618   2.8689   2.9143   2.9347   2.9696   2.9814   3.0128
  3.0675   3.1379   3.1616   3.1849   3.2653   3.3432   3.4552   3.4731
  3.4986   4.0925   4.1031   4.1071   4.1235   4.1364   4.1374   4.1501
  4.1556   4.1855   4.2188   4.2645   4.2956   4.3276   4.3566   4.3966
  4.4147   4.4370   4.4887   4.5019   4.6044   4.7224   4.7860   4.7952
  4.8366   5.2844
 --------------------------------------------------------------
 
          Ground-State Mulliken Net Atomic Charges

     Atom                 Charge (a.u.)
  ----------------------------------------
      1 F                    -0.257050
      2 C                     0.529552
      3 F                    -0.241888
      4 C                    -0.298024
      5 C                     0.197348
      6 C                    -0.205920
      7 C                    -0.193726
      8 C                     0.352182
      9 N                    -0.680863
     10 C                     0.193900
     11 C                     0.179677
     12 C                    -0.345060
     13 C                    -0.351896
     14 C                     0.186571
     15 C                     0.183246
     16 C                    -0.136103
     17 C                    -0.146687
     18 C                    -0.112421
     19 C                    -0.219111
     20 C                    -0.203793
     21 C                    -0.116759
     22 C                    -0.144974
     23 C                    -0.142725
     24 C                    -0.200825
     25 C                    -0.206326
     26 H                     0.152977
     27 H                     0.135477
     28 H                     0.146565
     29 H                     0.158738
     30 H                     0.155982
     31 H                     0.140992
     32 H                     0.168201
     33 H                     0.141965
     34 H                     0.132127
     35 H                     0.129473
     36 H                     0.126852
     37 H                     0.122774
     38 H                     0.127155
     39 H                     0.130812
     40 H                     0.144976
     41 H                     0.143118
     42 H                     0.123492
  ----------------------------------------
  Sum of atomic charges =     0.000000

 -----------------------------------------------------------------
                    Cartesian Multipole Moments
 -----------------------------------------------------------------
    Charge (ESU x 10^10)
                 0.0000
    Dipole Moment (Debye)
         X      -3.3800      Y      -0.5522      Z       0.0553
       Tot       3.4253
    Quadrupole Moments (Debye-Ang)
        XX    -147.2243     XY      -1.0148     YY    -130.8667
        XZ      -5.4418     YZ       1.1293     ZZ    -137.0205
    Octopole Moments (Debye-Ang^2)
       XXX     -21.2528    XXY     -20.9914    XYY       7.1800
       YYY      11.5791    XXZ      19.9676    XYZ      -4.2375
       YYZ     -15.7296    XZZ      16.2672    YZZ       1.6733
       ZZZ       4.0265
    Hexadecapole Moments (Debye-Ang^3)
      XXXX   -9058.3553   XXXY      34.2461   XXYY   -1768.9357
      XYYY       0.7988   YYYY   -3056.8939   XXXZ    -104.4185
      XXYZ      23.4377   XYYZ      24.0549   YYYZ      -7.9501
      XXZZ   -1535.4495   XYZZ      39.5266   YYZZ    -647.9002
      XZZZ      14.3100   YZZZ       9.8338   ZZZZ    -866.2958
 -----------------------------------------------------------------
Archival summary:
1\1\nia1977.scinet.local\SP\ProcedureUnspecified\6-31G*\212217\rhickman\MonFeb717:51:172022MonFeb717:51:172022\0\\#,ProcedureUnspecified,6-31G*,\\0,1\N\C,1,1.37529\C,2,1.40084,1,121.046\H,3,1.07911,2,119.862,1,1.00965,0\C,3,1.37539,2,120.713,1,-178.455,0\H,5,1.08058,3,119.019,2,-179.56,0\C,5,1.39766,3,121.663,2,0.520527,0\C,7,1.39791,5,117.519,3,1.30324,0\H,8,1.07768,7,120.25,5,178.202,0\C,8,1.37534,7,121.153,5,-1.24745,0\H,10,1.07932,8,119.203,7,178.51,0\C,1,1.41275,2,122.743,3,-170.656,0\C,12,1.39673,1,117.483,2,53.0474,0\H,13,1.0804,12,118.427,1,-1.08012,0\C,13,1.37801,12,121.395,1,178.799,0\H,15,1.07945,13,120.059,12,179.727,0\C,15,1.38547,13,119.359,12,-0.959475,0\H,17,1.07938,15,120.44,13,-179.796,0\C,17,1.37965,15,119.421,13,-0.0285406,0\H,19,1.08117,17,119.413,15,-179.818,0\C,19,1.39387,17,122.325,15,0.606284,0\C,1,1.41874,2,121.681,3,4.11571,0\C,22,1.38755,1,121.4,2,-70.4314,0\H,23,1.08019,22,119.657,1,1.02739,0\C,23,1.38381,22,119.6,1,-178.881,0\H,25,1.07971,23,119.816,22,-179.917,0\C,25,1.3848,23,120.048,22,0.452484,0\H,27,1.07975,25,119.951,23,179.87,0\C,27,1.38448,25,120.18,23,0.0606068,0\H,29,1.08061,27,120.054,25,179.911,0\C,29,1.38577,27,120.421,25,-0.556796,0\C,7,1.44901,5,118.552,3,-179.451,0\H,32,1.08084,7,116.421,5,-0.590885,0\C,32,1.32561,7,128.722,5,179.239,0\F,34,1.33142,32,128.225,7,0.0117708,0\F,34,1.3368,32,123.094,7,-179.941,0\C,31,1.49679,29,123.406,27,178.189,0\H,37,1.09138,31,110.28,29,15.4534,0\H,37,1.09278,31,109.89,29,134.833,0\C,21,1.51017,19,115.992,17,179.596,0\H,40,1.09425,21,107.714,19,-53.3008,0\H,40,1.09567,21,107.782,19,61.8418,0\\\@

 Total job time:  149.11s(wall), 144.18s(cpu) 
 Mon Feb  7 17:51:17 2022

        *************************************************************
        *                                                           *
        *  Thank you very much for using Q-Chem.  Have a nice day.  *
        *                                                           *
        *************************************************************


