48
 energy: -55.804869326157 gnorm: 0.000053213724 xtb: 6.4.1 (23d549d)
C         4.71211735160000   -0.47418969900000    1.77702046260000
C         3.53326398770000    0.12213032050000    1.90882217250000
C         2.45245182980000    0.09098971200000    0.94569382980000
C         1.12332509130000    0.20846231990000    1.26192201240000
N         0.35418004650000    0.08352709810000    0.13977574880000
Si       -1.41346329690000    0.12685954080000   -0.01602178500000
C        -2.10964175570000    0.34257606480000    1.76422772020000
C        -3.57590488890000    0.77124515150000    1.77436229000000
C        -1.96077430600000   -0.92373609360000    2.60907502100000
C        -1.70977070780000    1.63429609510000   -1.17853393590000
C        -3.16853732040000    1.89283075020000   -1.55253090280000
C        -1.09442458440000    2.90633932440000   -0.59313585010000
C        -1.95461853180000   -1.55010848730000   -0.80583057090000
C        -1.97292383700000   -1.52499928620000   -2.33511039020000
C        -1.05954085860000   -2.70390422240000   -0.34754216020000
C         1.21051601060000   -0.10157090830000   -0.90999116340000
C         2.51058476370000   -0.10424660460000   -0.47558525240000
C         3.69845636850000   -0.18481796370000   -1.29918343510000
C         3.75119427500000   -0.74287632620000   -2.50264609460000
H         5.46312380630000   -0.41099152310000    2.54662160930000
H         4.96337518570000   -1.06132095400000    0.91072374200000
H         3.30624636050000    0.65936322190000    2.82293892390000
H         0.67703648470000    0.36212680930000    2.22328076230000
H        -1.53878788700000    1.13753993920000    2.25513967640000
H        -4.18915054990000    0.07611812720000    1.20594643860000
H        -3.69650275750000    1.76313755580000    1.35015113750000
H        -3.95314386130000    0.79704847480000    2.79595420470000
H        -2.59750948890000   -1.71487819100000    2.22050582440000
H        -2.26144464240000   -0.72756063320000    3.63783836850000
H        -0.93398035440000   -1.27967706500000    2.61854280850000
H        -1.17352652680000    1.41818517510000   -2.10918756610000
H        -3.72296090360000    2.28345914010000   -0.70457524790000
H        -3.66359674700000    0.98535574350000   -1.88698650660000
H        -3.22669649240000    2.62801351700000   -2.35405270030000
H        -1.59050297780000    3.18303236440000    0.33442380930000
H        -1.19781479560000    3.73480640220000   -1.29217973300000
H        -0.03659619760000    2.76453104190000   -0.38662220910000
H        -2.97538394080000   -1.77001745300000   -0.47418481560000
H        -0.97396773720000   -1.35478122720000   -2.72803499320000
H        -2.62764940740000   -0.74762928240000   -2.71737707620000
H        -2.32277211010000   -2.48183511640000   -2.72056758470000
H        -0.03347155930000   -2.53800106790000   -0.66741879180000
H        -1.40345616070000   -3.64195052070000   -0.78116807440000
H        -1.06268243560000   -2.80825916600000    0.73283448970000
H         0.83523973190000   -0.17755140510000   -1.91027839760000
H         4.58629222790000    0.26741807760000   -0.87622045190000
H         2.89309807810000   -1.21886522820000   -2.94680730170000
H         4.65721702650000   -0.75201471460000   -3.08423245250000
