
Running Job 1 of 1 fragments/C073/conf-2/spe_input.inp
qchem fragments/C073/conf-2/spe_input.inp_54529.0 /gpfs/fs0/scratch/a/aspuru/rhickman/descriptor_computation/qchem54529/ 0
/scinet/niagara/software/commercial/qc52/exe/qcprog.exe_s fragments/C073/conf-2/spe_input.inp_54529.0 /gpfs/fs0/scratch/a/aspuru/rhickman/descriptor_computation/qchem54529/
                  Welcome to Q-Chem
     A Quantum Leap Into The Future Of Chemistry


 Q-Chem 5.2, Q-Chem, Inc., Pleasanton, CA (2019)

 License issued to: SRG Alan Aspuru-Guzik, University of Toronto

 Yihan Shao,  Zhengting Gan,  E. Epifanovsky,  A. T. B. Gilbert,  M. Wormit,  
 J. Kussmann,  A. W. Lange,  A. Behn,  Jia Deng,  Xintian Feng,  D. Ghosh,  
 M. Goldey,  P. R. Horn,  L. D. Jacobson,  I. Kaliman,  T. Kus,  A. Landau,  
 Jie Liu,  E. I. Proynov,  R. M. Richard,  R. P. Steele,  E. J. Sundstrom,  
 H. L. Woodcock III,  P. M. Zimmerman,  D. Zuev,  B. Albrecht,  E. Alguire,  
 S. A. Baeppler,  D. Barton,  Z. Benda,  Y. A. Bernard,  E. J. Berquist,  
 K. B. Bravaya,  H. Burton,  D. Casanova,  Chun-Min Chang,  Yunqing Chen,  
 A. Chien,  K. D. Closser,  M. P. Coons,  S. Coriani,  S. Dasgupta,  
 A. L. Dempwolff,  M. Diedenhofen,  Hainam Do,  R. G. Edgar,  Po-Tung Fang,  
 S. Faraji,  S. Fatehi,  Qingguo Feng,  K. D. Fenk,  J. Fosso-Tande,  
 J. Gayvert,  Qinghui Ge,  A. Ghysels,  G. Gidofalvi,  J. Gomes,  
 J. Gonthier,  A. Gunina,  D. Hait,  M. W. D. Hanson-Heine,  
 P. H. P. Harbach,  A. W. Hauser,  M. F. Herbst,  J. E. Herr,  
 E. G. Hohenstein,  Z. C. Holden,  Kerwin Hui,  B. C. Huynh,  T.-C. Jagau,  
 Hyunjun Ji,  B. Kaduk,  K. Khistyaev,  Jaehoon Kim,  P. Klunzinger,  K. Koh,  
 D. Kosenkov,  L. Koulias,  T. Kowalczyk,  C. M. Krauter,  A. Kunitsa,  
 Ka Un Lao,  A. Laurent,  K. V. Lawler,  Joonho Lee,  D. Lefrancois,  
 S. Lehtola,  D. S. Levine,  Yi-Pei Li,  You-Sheng Lin,  Fenglai Liu,  
 E. Livshits,  A. Luenser,  P. Manohar,  E. Mansoor,  S. F. Manzer,  
 Shan-Ping Mao,  Yuezhi Mao,  N. Mardirossian,  A. V. Marenich,  
 T. Markovich,  L. A. Martinez-Martinez,  S. A. Maurer,  N. J. Mayhall,  
 S. C. McKenzie,  J.-M. Mewes,  P. Morgante,  A. F. Morrison,  
 J. W. Mullinax,  K. Nanda,  T. S. Nguyen-Beck,  R. Olivares-Amaya,  
 J. A. Parkhill,  Zheng Pei,  T. M. Perrine,  F. Plasser,  P. Pokhilko,  
 S. Prager,  A. Prociuk,  E. Ramos,  D. R. Rehn,  F. Rob,  M. Scheurer,  
 M. Schneider,  N. Sergueev,  S. M. Sharada,  S. Sharma,  D. W. Small,  
 T. Stauch,  T. Stein,  Yu-Chuan Su,  A. J. W. Thom,  A. Tkatchenko,  
 T. Tsuchimochi,  N. M. Tubman,  L. Vogt,  M. L. Vidal,  O. Vydrov,  
 M. A. Watson,  J. Wenzel,  M. de Wergifosse,  T. A. Wesolowski,  A. White,  
 J. Witte,  A. Yamada,  Jun Yang,  K. Yao,  S. Yeganeh,  S. R. Yost,  
 Zhi-Qiang You,  A. Zech,  Igor Ying Zhang,  Xing Zhang,  Yan Zhao,  
 Ying Zhu,  B. R. Brooks,  G. K. L. Chan,  C. J. Cramer,  M. S. Gordon,  
 W. J. Hehre,  A. Klamt,  M. W. Schmidt,  C. D. Sherrill,  D. G. Truhlar,  
 A. Aspuru-Guzik,  R. Baer,  A. T. Bell,  N. A. Besley,  Jeng-Da Chai,  
 A. E. DePrince, III,  R. A. DiStasio Jr.,  A. Dreuw,  B. D. Dunietz,  
 T. R. Furlani,  Chao-Ping Hsu,  Yousung Jung,  Jing Kong,  D. S. Lambrecht,  
 WanZhen Liang,  C. Ochsenfeld,  V. A. Rassolov,  L. V. Slipchenko,  
 J. E. Subotnik,  T. Van Voorhis,  J. M. Herbert,  A. I. Krylov,  
 P. M. W. Gill,  M. Head-Gordon

 Contributors to earlier versions of Q-Chem not listed above: 
 R. D. Adamson,  B. Austin,  J. Baker,  G. J. O. Beran,  K. Brandhorst,  
 S. T. Brown,  E. F. C. Byrd,  A. K. Chakraborty,  C.-L. Cheng,  
 Siu Hung Chien,  D. M. Chipman,  D. L. Crittenden,  H. Dachsel,  
 R. J. Doerksen,  A. D. Dutoi,  L. Fusti-Molnar,  W. A. Goddard III,  
 A. Golubeva-Zadorozhnaya,  S. R. Gwaltney,  G. Hawkins,  A. Heyden,  
 S. Hirata,  G. Kedziora,  F. J. Keil,  C. Kelley,  Jihan Kim,  R. A. King,  
 R. Z. Khaliullin,  P. P. Korambath,  W. Kurlancheek,  A. M. Lee,  M. S. Lee,  
 S. V. Levchenko,  Ching Yeh Lin,  D. Liotard,  R. C. Lochan,  I. Lotan,  
 P. E. Maslen,  N. Nair,  D. P. O'Neill,  D. Neuhauser,  E. Neuscamman,  
 C. M. Oana,  R. Olson,  B. Peters,  R. Peverati,  P. A. Pieniazek,  
 Y. M. Rhee,  J. Ritchie,  M. A. Rohrdanz,  E. Rosta,  N. J. Russ,  
 H. F. Schaefer III,  N. E. Schultz,  N. Shenvi,  A. C. Simmonett,  A. Sodt,  
 D. Stuck,  K. S. Thanthiriwatte,  V. Vanovschi,  Tao Wang,  A. Warshel,  
 C. F. Williams,  Q. Wu,  X. Xu,  W. Zhang

 Please cite Q-Chem as follows:
 Y. Shao et al., Mol. Phys. 113, 184-215 (2015)
 DOI: 10.1080/00268976.2014.952696

 Q-Chem 5.2.1 for Intel X86 EM64T Linux

 Parts of Q-Chem use Armadillo 8.300.2 (Tropical Shenanigans).
 http://arma.sourceforge.net/

 Q-Chem begins on Mon Feb  7 13:59:44 2022  

Host: 
0

     Scratch files written to /gpfs/fs0/scratch/a/aspuru/rhickman/descriptor_computation/qchem54529//
 Jul1719 |scratch|qcdevops|jenkins|workspace|build_RNUM -1
Processing $rem in /scinet/niagara/software/commercial/qc52/config/preferences:
	 MEM_TOTAL  4000 
NAlpha2: 110
NElect   110
Mult     1

Checking the input file for inconsistencies... 	...done.

--------------------------------------------------------------
User input:
--------------------------------------------------------------
$molecule
0 1
C        -2.14965179140000   -3.69294708060000    0.00826925040000
C        -2.51793654220000   -2.42104681990000   -0.09221974050000
C        -1.64379295410000   -1.25697306170000   -0.08410749960000
C        -2.20080688340000    0.01867818420000   -0.17884077010000
C        -1.44114159560000    1.17706126890000   -0.15898698080000
C        -2.14404466020000    2.46113227050000   -0.21896109660000
C        -1.84496726030000    3.55149192420000    0.47600283790000
C        -0.03234560870000    1.08196136430000   -0.09705785790000
N         0.74924983900000    2.20006867390000   -0.10546921150000
C         0.52750024300000   -0.20580538030000   -0.00541909590000
C         2.01657333900000   -0.34792897960000    0.06897371170000
F         2.56129823450000    0.30008275330000    1.12118647210000
F         2.43179393260000   -1.61540684670000    0.16154696930000
F         2.64424173720000    0.16494685830000   -1.02029455770000
C        -0.25851392970000   -1.34560893440000    0.01230174780000
H        -2.87668524250000   -4.48634147600000   -0.00760145410000
H        -1.12288128520000   -3.99859860770000    0.11060749510000
H        -3.57101055100000   -2.18700594390000   -0.19027093000000
H        -3.27557873710000    0.11459420760000   -0.25000090990000
H        -3.01616014730000    2.46599322910000   -0.86213284010000
H        -1.03615307200000    3.58025466310000    1.18666498570000
H        -2.43784978410000    4.44675601150000    0.39211126840000
H         0.31142048920000    3.04876310330000   -0.42568080620000
H         1.73003584360000    2.11153957960000   -0.30694501200000
H         0.22042053900000   -2.30775381450000    0.09019942690000
$end

$rem
BASIS = 6-31G*
GUI = 2
METHOD = B3LYP
PRINT_ORBITALS false
MOLDEN_FORMAT false
--------------------------------------------------------------
 ----------------------------------------------------------------
             Standard Nuclear Orientation (Angstroms)
    I     Atom           X                Y                Z
 ----------------------------------------------------------------
    1      C       3.7468233800    -1.9774658799    -0.1143948128
    2      C       3.3593531481    -0.7120651950    -0.0044407578
    3      C       1.9899595836    -0.2189968338     0.0256489750
    4      C       1.7579467700     1.1531413612     0.1253075899
    5      C       0.4869876160     1.7042856492     0.1407897046
    6      C       0.3712564335     3.1635094613     0.2022722998
    7      C      -0.4966876326     3.9098227640    -0.4692899745
    8      C      -0.6395941652     0.8513147671     0.1118154849
    9      N      -1.9059716025     1.3567907407     0.1555004576
   10      C      -0.4032107792    -0.5325008195     0.0151431211
   11      C      -1.5714090890    -1.4688618146    -0.0250176597
   12      F      -2.4119496301    -1.2275730229    -1.0541276775
   13      F      -1.2253554229    -2.7563234371    -0.1258517994
   14      F      -2.3464148497    -1.3834242717     1.0865492987
   15      C       0.8785014183    -1.0536968403    -0.0382703669
   16      H       4.7901030258    -2.2414603576    -0.1277619852
   17      H       3.0538199009    -2.7967460952    -0.1961245602
   18      H       4.1135106319     0.0617955167     0.0713228474
   19      H       2.6052725138     1.8234316566     0.1716561627
   20      H       1.1154434806     3.6471414959     0.8240155244
   21      H      -1.2083524126     3.4889628900    -1.1595497676
   22      H      -0.4902861186     4.9836993147    -0.3868676290
   23      H      -1.9968612035     2.3069118110     0.4772476747
   24      H      -2.6711041016     0.7446068288     0.3794964449
   25      H       1.0041745234    -2.1209113795    -0.1184479323
 ----------------------------------------------------------------
 Molecular Point Group                 C1    NOp =  1
 Largest Abelian Subgroup              C1    NOp =  1
 Nuclear Repulsion Energy =        1000.58910339 hartrees
 There are       55 alpha and       55 beta electrons
 Requested basis set is 6-31G(d)
 There are 80 shells and 245 basis functions

 Total QAlloc Memory Limit   4000 MB
 Mega-Array Size       188 MB
 MEM_STATIC part       192 MB
 A cutoff of  1.0D-08 yielded   2064 shell pairs
 There are     21165 function pairs
 Smallest overlap matrix eigenvalue = 2.71E-04

 Scale SEOQF with 1.000000e-01/1.000000e-01/1.000000e+00

 Standard Electronic Orientation quadrupole field applied
 Nucleus-field energy     =     0.0000000180 hartrees
 Guess from superposition of atomic densities
 Warning:  Energy on first SCF cycle will be non-variational
 SAD guess density has 110.000000 electrons

 -----------------------------------------------------------------------
  General SCF calculation program by
  Eric Jon Sundstrom, Paul Horn, Yuezhi Mao, Dmitri Zuev, Alec White,
  David Stuck, Shaama M.S., Shane Yost, Joonho Lee, David Small,
  Daniel Levine, Susi Lehtola, Hugh Burton, Evgeny Epifanovsky,
  Bang C. Huynh
 -----------------------------------------------------------------------
 Exchange:     0.2000 Hartree-Fock + 0.0800 Slater + 0.7200 B88
 Correlation:  0.1900 VWN1RPA + 0.8100 LYP
 Using SG-1 standard quadrature grid
 A restricted SCF calculation will be
 performed using DIIS
 SCF converges when DIIS error is below 1.0e-05
 ---------------------------------------
  Cycle       Energy         DIIS error
 ---------------------------------------
    1    -782.7453485117      5.07e-02  
    2    -779.1784216700      6.11e-03  
    3    -779.0729262758      7.65e-03  
    4    -779.4235160355      1.29e-03  
    5    -779.4339405393      4.08e-04  
    6    -779.4349386526      1.96e-04  
    7    -779.4352396290      4.27e-05  
    8    -779.4352520267      1.43e-05  
    9    -779.4352534941      3.41e-06  Convergence criterion met
 ---------------------------------------
 SCF time:   CPU 41.50s  wall 42.00s 
 SCF   energy in the final basis set =     -779.4352534941
 Total energy in the final basis set =     -779.4352534941
 
 --------------------------------------------------------------
 
                    Orbital Energies (a.u.)
 --------------------------------------------------------------
 
 Alpha MOs
 -- Occupied --
-24.7255 -24.7199 -24.7172 -14.3517 -10.4286 -10.2481 -10.2060 -10.2025
-10.1998 -10.1993 -10.1956 -10.1916 -10.1887 -10.1886 -10.1751  -1.3047
 -1.2156  -1.2081  -0.9432  -0.8634  -0.8112  -0.7943  -0.7539  -0.7208
 -0.6948  -0.6434  -0.6310  -0.5994  -0.5866  -0.5780  -0.5584  -0.5454
 -0.5221  -0.5198  -0.4780  -0.4742  -0.4635  -0.4570  -0.4466  -0.4359
 -0.4226  -0.4195  -0.4133  -0.4020  -0.3959  -0.3935  -0.3846  -0.3786
 -0.3517  -0.3433  -0.3387  -0.3038  -0.2726  -0.2465  -0.1977
 -- Virtual --
 -0.0350  -0.0214   0.0144   0.0726   0.0978   0.1050   0.1155   0.1220
  0.1410   0.1502   0.1509   0.1604   0.1670   0.1861   0.2055   0.2193
  0.2321   0.2442   0.2502   0.2875   0.2957   0.3213   0.3355   0.3394
  0.3565   0.3935   0.3996   0.4423   0.4477   0.4841   0.4899   0.5124
  0.5211   0.5248   0.5352   0.5450   0.5660   0.5694   0.5769   0.5842
  0.5954   0.6015   0.6048   0.6158   0.6296   0.6451   0.6615   0.6739
  0.6881   0.6893   0.7122   0.7268   0.7402   0.7641   0.7878   0.8118
  0.8202   0.8404   0.8476   0.8596   0.8807   0.8839   0.8864   0.9159
  0.9263   0.9449   0.9538   0.9638   0.9700   0.9975   1.0066   1.0277
  1.0495   1.0733   1.0857   1.1027   1.1083   1.1262   1.1312   1.1394
  1.1495   1.1909   1.2090   1.2194   1.2469   1.2608   1.3147   1.3286
  1.3349   1.3391   1.3502   1.3712   1.3790   1.3880   1.4110   1.4286
  1.4527   1.4624   1.4929   1.5081   1.5125   1.5213   1.5519   1.6026
  1.6112   1.6221   1.6593   1.6749   1.6829   1.7244   1.7478   1.7727
  1.7797   1.8243   1.8278   1.8348   1.8491   1.8608   1.8843   1.8944
  1.9151   1.9421   1.9687   1.9738   1.9837   1.9924   2.0035   2.0136
  2.0160   2.0393   2.0852   2.0996   2.1073   2.1294   2.1384   2.1610
  2.1746   2.1864   2.1953   2.2170   2.2441   2.2515   2.2737   2.3025
  2.3101   2.3245   2.3637   2.3706   2.4260   2.4313   2.4433   2.4813
  2.5131   2.5536   2.5840   2.5993   2.6614   2.6788   2.6878   2.7081
  2.7368   2.7539   2.7661   2.8114   2.8572   2.9143   2.9428   2.9881
  3.0362   3.0483   3.0840   3.1091   3.1787   3.2767   3.4635   3.9321
  4.0955   4.1039   4.1186   4.1475   4.1843   4.2537   4.2621   4.3125
  4.3253   4.4934   4.5310   4.7907   4.9279   5.8513
 --------------------------------------------------------------
 
          Ground-State Mulliken Net Atomic Charges

     Atom                 Charge (a.u.)
  ----------------------------------------
      1 C                    -0.360607
      2 C                    -0.112959
      3 C                     0.185461
      4 C                    -0.274089
      5 C                     0.134781
      6 C                    -0.145113
      7 C                    -0.361807
      8 C                     0.257187
      9 N                    -0.830172
     10 C                    -0.029669
     11 C                     0.783851
     12 F                    -0.271861
     13 F                    -0.262386
     14 F                    -0.279674
     15 C                    -0.252273
     16 H                     0.142084
     17 H                     0.141252
     18 H                     0.124060
     19 H                     0.130566
     20 H                     0.141652
     21 H                     0.167879
     22 H                     0.147738
     23 H                     0.332852
     24 H                     0.341214
     25 H                     0.150034
  ----------------------------------------
  Sum of atomic charges =     0.000000

 -----------------------------------------------------------------
                    Cartesian Multipole Moments
 -----------------------------------------------------------------
    Charge (ESU x 10^10)
                 0.0000
    Dipole Moment (Debye)
         X       0.2475      Y       2.3881      Z       0.8210
       Tot       2.5373
    Quadrupole Moments (Debye-Ang)
        XX     -79.9111     XY      -4.0374     YY     -77.9865
        XZ      -0.9548     YZ       2.1146     ZZ     -88.4311
    Octopole Moments (Debye-Ang^2)
       XXX     -42.5297    XXY       2.1786    XYY     -11.6985
       YYY     -11.1816    XXZ       6.1060    XYZ       1.9522
       YYZ       2.6398    XZZ     -22.1689    YZZ     -11.2972
       ZZZ      -0.3672
    Hexadecapole Moments (Debye-Ang^3)
      XXXX   -1878.4508   XXXY      37.2599   XXYY    -632.8773
      XYYY      27.3074   YYYY   -1831.5142   XXXZ     -12.7805
      XXYZ      13.6075   XYYZ       8.2499   YYYZ      12.3039
      XXZZ    -390.8484   XYZZ      25.7274   YYZZ    -366.5046
      XZZZ       2.2519   YZZZ       2.4476   ZZZZ    -168.8489
 -----------------------------------------------------------------
Archival summary:
1\1\nia1977.scinet.local\SP\ProcedureUnspecified\6-31G*\311110\rhickman\MonFeb714:00:262022MonFeb714:00:262022\0\\#,ProcedureUnspecified,6-31G*,\\0,1\F\C,1,1.35048\F,2,1.33697,1,106.003\F,2,1.35776,1,104.913,3,-111.54,0\C,2,1.49769,1,113.216,3,125.33,0\C,5,1.38466,2,119.055,1,-121.733,0\H,6,1.07758,5,118.922,2,0.665547,0\C,6,1.39146,5,120.785,2,-178.601,0\C,8,1.39518,6,117.414,5,-0.898273,0\H,9,1.08139,8,118.84,6,-179.707,0\C,9,1.3854,8,122.998,6,-1.05494,0\C,5,1.40718,2,119.054,1,58.535,0\N,12,1.36423,5,121.5,2,-0.691102,0\H,13,1.00517,12,119.214,5,17.2372,0\H,13,1.00723,12,116.328,5,163.574,0\C,8,1.45577,6,123.179,5,178.992,0\H,16,1.08321,8,114.299,6,-178.984,0\C,16,1.32795,8,126.793,6,1.12308,0\H,18,1.07618,16,122.944,8,0.0416948,0\H,18,1.07625,16,121.172,8,179.969,0\C,11,1.4651,9,117.98,8,-177.914,0\H,21,1.08364,11,114.478,9,-37.1705,0\C,21,1.32714,11,126.194,9,139.382,0\H,23,1.07705,21,121.203,11,-178.015,0\H,23,1.07706,21,122.458,11,-1.18076,0\\\@

 Total job time:  41.92s(wall), 41.70s(cpu) 
 Mon Feb  7 14:00:26 2022

        *************************************************************
        *                                                           *
        *  Thank you very much for using Q-Chem.  Have a nice day.  *
        *                                                           *
        *************************************************************


