
Running Job 1 of 1 tidas/B033/conf-7/spe_input.inp
qchem tidas/B033/conf-7/spe_input.inp_246785.0 /home/a/aspuru/seifridm/acdc_laser/descriptor_computation/qchem246785/ 0
/gpfs/fs1/scinet/niagara/software/commercial/qc54/exe/qcprog.exe_s tidas/B033/conf-7/spe_input.inp_246785.0 /home/a/aspuru/seifridm/acdc_laser/descriptor_computation/qchem246785/
                  Welcome to Q-Chem
     A Quantum Leap Into The Future Of Chemistry


 Q-Chem 5.4, Q-Chem, Inc., Pleasanton, CA (2021)

 License issued to: SRG Alan Aspuru-Guzik, University of Toronto

 E. Epifanovsky,  A. T. B. Gilbert,  Xintian Feng,  Joonho Lee,  Yuezhi Mao,  
 N. Mardirossian,  P. Pokhilko,  A. White,  M. Wormit,  M. P. Coons,  
 A. L. Dempwolff,  Zhengting Gan,  D. Hait,  P. R. Horn,  L. D. Jacobson,  
 I. Kaliman,  J. Kussmann,  A. W. Lange,  Ka Un Lao,  D. S. Levine,  Jie Liu,  
 S. C. McKenzie,  A. F. Morrison,  K. Nanda,  F. Plasser,  D. R. Rehn,  
 M. L. Vidal,  Zhi-Qiang You,  Ying Zhu,  B. Alam,  B. Albrecht,  
 A. Aldossary,  E. Alguire,  J. H. Andersen,  D. Barton,  K. Begam,  A. Behn,  
 Y. A. Bernard,  E. J. Berquist,  H. Burton,  A. Carreras,  K. Carter-Fenk,  
 Romit Chakraborty,  A. D. Chien,  K. D. Closser,  V. Cofer-Shabica,  
 S. Dasgupta,  Jia Deng,  M. de Wergifosse,  M. Diedenhofen,  Hainam Do,  
 S. Ehlert,  Po-Tung Fang,  S. Fatehi,  Qingguo Feng,  T. Friedhoff,  
 J. Gayvert,  Qinghui Ge,  G. Gidofalvi,  M. Goldey,  J. Gomes,  
 C. Gonzalez-Espinoza,  S. Gulania,  A. Gunina,  M. W. D. Hanson-Heine,  
 P. H. P. Harbach,  A. W. Hauser,  M. F. Herbst,  M. Hernandez Vera,  
 M. Hodecker,  Z. C. Holden,  S. Houck,  Xunkun Huang,  Kerwin Hui,  
 B. C. Huynh,  M. Ivanov,  Hyunjun Ji,  Hanjie Jiang,  B. Kaduk,  S. Kaehler,  
 K. Khistyaev,  Jaehoon Kim,  P. Klunzinger,  Z. Koczor-Benda,  
 Joong Hoon Koh,  D. Kosenkov,  L. Koulias,  T. Kowalczyk,  C. M. Krauter,  
 K. Kue,  A. Kunitsa,  T. Kus,  A. Landau,  K. V. Lawler,  D. Lefrancois,  
 S. Lehtola,  Rain Li,  Yi-Pei Li,  Jiashu Liang,  M. Liebenthal,  
 Hung-Hsuan Lin,  You-Sheng Lin,  Fenglai Liu,  Kuan-Yu Liu,  
 M. Loipersberger,  A. Luenser,  A. Manjanath,  P. Manohar,  E. Mansoor,  
 S. F. Manzer,  Shan-Ping Mao,  A. V. Marenich,  T. Markovich,  S. Mason,  
 S. A. Maurer,  P. F. McLaughlin,  M. F. S. J. Menger,  J.-M. Mewes,  
 S. A. Mewes,  P. Morgante,  J. W. Mullinax,  K. J. Oosterbaan,  G. Paran,  
 Alexander C. Paul,  Suranjan K. Paul,  F. Pavosevic,  Zheng Pei,  S. Prager,  
 E. I. Proynov,  E. Ramos,  B. Rana,  A. E. Rask,  A. Rettig,  R. M. Richard,  
 F. Rob,  E. Rossomme,  T. Scheele,  M. Scheurer,  M. Schneider,  
 N. Sergueev,  S. M. Sharada,  W. Skomorowski,  D. W. Small,  C. J. Stein,  
 Yu-Chuan Su,  E. J. Sundstrom,  Zhen Tao,  J. Thirman,  T. Tsuchimochi,  
 N. M. Tubman,  S. P. Veccham,  O. Vydrov,  J. Wenzel,  J. Witte,  A. Yamada,  
 Kun Yao,  S. Yeganeh,  S. R. Yost,  A. Zech,  Igor Ying Zhang,  Xing Zhang,  
 Yu Zhang,  D. Zuev,  A. Aspuru-Guzik,  A. T. Bell,  N. A. Besley,  
 K. B. Bravaya,  B. R. Brooks,  D. Casanova,  Jeng-Da Chai,  S. Coriani,  
 C. J. Cramer,  A. E. DePrince, III,  R. A. DiStasio Jr.,  A. Dreuw,  
 B. D. Dunietz,  T. R. Furlani,  W. A. Goddard III,  S. Grimme,  
 S. Hammes-Schiffer,  T. Head-Gordon,  W. J. Hehre,  Chao-Ping Hsu,  
 T.-C. Jagau,  Yousung Jung,  A. Klamt,  Jing Kong,  D. S. Lambrecht,  
 WanZhen Liang,  N. J. Mayhall,  C. W. McCurdy,  J. B. Neaton,  T. Neudecker,  
 C. Ochsenfeld,  J. A. Parkhill,  R. Peverati,  V. A. Rassolov,  Yihan Shao,  
 L. V. Slipchenko,  R. P. Steele,  J. E. Subotnik,  A. J. W. Thom,  
 A. Tkatchenko,  D. G. Truhlar,  T. Van Voorhis,  T. A. Wesolowski,  
 K. B. Whaley,  H. L. Woodcock III,  P. M. Zimmerman,  S. Faraji,  
 P. M. W. Gill,  M. Head-Gordon,  J. M. Herbert,  A. I. Krylov

 Additional authors since Version 5.4.0: 
 Chandrima Chakravarty,  L. Cunha,  R. Kang,  Yongbin Kim,  S. Kotaru,  
 Shaozhi Li,  Xiangyuan Li,  F. Matz,  A. Molle,  V. Parravicini,  
 Haisheng Ren,  Hengyuan Shen,  Yingli Su,  Hung-Yi Tsai,  C. Utku,  
 Fang Wang,  Jeff Yang,  F. Zeller

 Contributors to earlier versions of Q-Chem not listed above: 
 R. D. Adamson,  B. Austin,  R. Baer,  J. Baker,  G. J. O. Beran,  
 K. Brandhorst,  S. T. Brown,  E. F. C. Byrd,  Arup K. Chakraborty,  
 G. K. L. Chan,  Chun-Min Chang,  Yunqing Chen,  C.-L. Cheng,  
 Siu Hung Chien,  D. M. Chipman,  D. L. Crittenden,  H. Dachsel,  
 R. J. Doerksen,  A. D. Dutoi,  R. G. Edgar,  J. Fosso-Tande,  
 L. Fusti-Molnar,  D. Ghosh,  A. Ghysels,  A. Golubeva-Zadorozhnaya,  
 J. Gonthier,  M. S. Gordon,  S. R. Gwaltney,  G. Hawkins,  J. E. Herr,  
 A. Heyden,  S. Hirata,  E. G. Hohenstein,  G. Kedziora,  F. J. Keil,  
 C. Kelley,  Jihan Kim,  R. A. King,  R. Z. Khaliullin,  P. P. Korambath,  
 W. Kurlancheek,  A. Laurent,  A. M. Lee,  M. S. Lee,  S. V. Levchenko,  
 Ching Yeh Lin,  D. Liotard,  E. Livshits,  R. C. Lochan,  I. Lotan,  
 L. A. Martinez-Martinez,  P. E. Maslen,  N. Nair,  D. P. O'Neill,  
 D. Neuhauser,  E. Neuscamman,  C. M. Oana,  R. Olivares-Amaya,  R. Olson,  
 T. M. Perrine,  B. Peters,  P. A. Pieniazek,  A. Prociuk,  Y. M. Rhee,  
 J. Ritchie,  M. A. Rohrdanz,  E. Rosta,  N. J. Russ,  H. F. Schaefer III,  
 M. W. Schmidt,  N. E. Schultz,  S. Sharma,  N. Shenvi,  C. D. Sherrill,  
 A. C. Simmonett,  A. Sodt,  T. Stein,  D. Stuck,  K. S. Thanthiriwatte,  
 V. Vanovschi,  L. Vogt,  Tao Wang,  A. Warshel,  M. A. Watson,  
 C. F. Williams,  Q. Wu,  X. Xu,  Jun Yang,  W. Zhang,  Yan Zhao

   Please cite Q-Chem as follows:
  "Software for the frontiers of quantum chemistry:
   An overview of developments in the Q-Chem 5 package"
   J. Chem. Phys. 155, 084801 (2021)
   https://doi.org/10.1063/5.0055522 (open access)

 Q-Chem 5.4.2 for Intel X86 EM64T Linux

 Parts of Q-Chem use Armadillo 9.900.5 (Nocturnal Misbehaviour).
 http://arma.sourceforge.net/

 Q-Chem begins on Fri Aug 12 12:44:29 2022  

 Host: 
0

     Scratch files written to /home/a/aspuru/seifridm/acdc_laser/descriptor_computation/qchem246785//
 Dec1321 |scratch|qcdevops|jenkins|workspace|build_RNUM 6959   
 Processing $rem in /gpfs/fs1/scinet/niagara/software/commercial/qc54/config/preferences:
 Processing $rem in /home/a/aspuru/seifridm/.qchemrc:

 Checking the input file for inconsistencies... 	...done.

--------------------------------------------------------------
User input:
--------------------------------------------------------------
$molecule
0 1
C           -3.30813877320000       -1.18311780740000        1.50115349850000
C           -2.58541718340000       -1.25529322690000        0.39518454810000
C           -1.52846889210000       -0.27249878600000        0.07421860240000
C           -1.97093362880000        1.03706905500000       -0.10228112780000
C           -1.09172375860000        2.05732472660000       -0.40601225410000
Cl          -1.68535446660000        3.66243366280000       -0.65297808680000
C            0.26158760580000        1.79891800400000       -0.50859358820000
C            0.73490948150000        0.51133353530000       -0.29673676140000
C            2.17792245060000        0.29011010290000       -0.39045686500000
C            2.91659793960000       -0.46563183840000        0.40438585850000
F            2.53894854980000       -1.13700981150000        1.47851292260000
F            4.23315702300000       -0.60944970650000        0.24686662870000
C           -0.15696898450000       -0.55130763940000       -0.03138413910000
O            0.45505906920000       -1.74879976920000        0.13622700650000
C           -0.22688199250000       -2.98043081040000        0.02237961970000
C           -0.56241363740000       -3.31587525880000       -1.42745913770000
H           -4.10954028260000       -1.87335212360000        1.70208169250000
H           -3.10825901370000       -0.44177544550000        2.25671270060000
H           -2.81341468420000       -2.00172403910000       -0.35511233130000
H           -3.02607836750000        1.24287455210000       -0.01140713470000
H            0.95436828610000        2.59416596310000       -0.73312556550000
H            2.70620195090000        0.82357009060000       -1.16682334720000
H           -1.12236318620000       -2.99015956050000        0.65198764630000
H            0.48462980090000       -3.71022748850000        0.41882231190000
H           -1.19063084360000       -2.54474047300000       -1.86826397370000
H           -1.08277754210000       -4.26843451930000       -1.47476676010000
H            0.35124221150000       -3.38357962310000       -2.01294833100000
$end

$rem
BASIS = 6-31G*
GUI = 2
METHOD = B3LYP
PRINT_ORBITALS false
MOLDEN_FORMAT false
$end
--------------------------------------------------------------
 ----------------------------------------------------------------
             Standard Nuclear Orientation (Angstroms)
    I     Atom           X                Y                Z
 ----------------------------------------------------------------
    1      C      -1.5299958727     3.0965126647    -1.4517416788
    2      C      -1.0414848758     2.5910913818    -0.3307557559
    3      C      -0.9451271900     1.1347373083    -0.0945529815
    4      C      -2.1626446652     0.4574932760    -0.0647730151
    5      C      -2.2211706901    -0.9055612066     0.1469848898
    6      Cl     -3.7539508800    -1.7030542825     0.2129691332
    7      C      -1.0573906601    -1.6338416547     0.3018146162
    8      C       0.1712121873    -0.9912819227     0.2351609492
    9      C       1.3771374099    -1.8067988994     0.3789876229
   10      C       2.4954405225    -1.6967772463    -0.3180458764
   11      F       2.7563632842    -0.8786076078    -1.3228514044
   12      F       3.5507940682    -2.4881969828    -0.1213039099
   13      C       0.2454759542     0.4090236499     0.0657659235
   14      O       1.5125458769     0.8889452364     0.0362986979
   15      C       1.8227966305     2.2476430950     0.2656553190
   16      C       1.6765485210     2.6267936395     1.7360271224
   17      H      -1.6433893432     4.1575639136    -1.5944024575
   18      H      -1.8141501352     2.4650512926    -2.2769222738
   19      H      -0.7742523559     3.2455843619     0.4891911597
   20      H      -3.0719910974     1.0228327188    -0.1967759906
   21      H      -1.0964559386    -2.7005315350     0.4548688533
   22      H       1.3449140036    -2.6056700518     1.1050525219
   23      H       1.2211228654     2.8989235079    -0.3763804964
   24      H       2.8699626425     2.3310827594    -0.0384831323
   25      H       0.6595115849     2.4539312206     2.0815254209
   26      H       1.9251627047     3.6755094997     1.8730372728
   27      H       2.3471632126     2.0231200256     2.3426592925
 ----------------------------------------------------------------
 Molecular Point Group                 C1    NOp =  1
 Largest Abelian Subgroup              C1    NOp =  1
 Nuclear Repulsion Energy =        1199.40266289 hartrees
 There are       63 alpha and       63 beta electrons
 Requested basis set is 6-31G(d)
 There are 87 shells and 266 basis functions

 Total QAlloc Memory Limit   8000 MB
 Mega-Array Size       188 MB
 MEM_STATIC part       192 MB
 A cutoff of  1.0D-08 yielded   2454 shell pairs
 There are     24364 function pairs
 Smallest overlap matrix eigenvalue = 3.24E-04

 Scale SEOQF with 1.000000e-01/1.000000e-01/1.000000e-01

 Standard Electronic Orientation quadrupole field applied
 Nucleus-field energy     =     0.0000000474 hartrees
 Guess from superposition of atomic densities
 Warning:  Energy on first SCF cycle will be non-variational
 SAD guess density has 126.000000 electrons

 -----------------------------------------------------------------------
  General SCF calculation program by
  Eric Jon Sundstrom, Paul Horn, Yuezhi Mao, Dmitri Zuev, Alec White,
  David Stuck, Shaama M.S., Shane Yost, Joonho Lee, David Small,
  Daniel Levine, Susi Lehtola, Hugh Burton, Evgeny Epifanovsky,
  Bang C. Huynh
 -----------------------------------------------------------------------
 Exchange:     0.2000 Hartree-Fock + 0.0800 Slater + 0.7200 B88
 Correlation:  0.1900 VWN1RPA + 0.8100 LYP
 Using SG-1 standard quadrature grid
 A restricted SCF calculation will be
 performed using DIIS
 SCF converges when DIIS error is below 1.0e-05
 ---------------------------------------
  Cycle       Energy         DIIS error
 ---------------------------------------
    1   -1202.4389022436      4.80e-02  
    2   -1198.6959578843      5.20e-03  
    3   -1198.5428408069      6.67e-03  
    4   -1198.9146083333      1.30e-03  
    5   -1198.9289440220      4.17e-04  
    6   -1198.9301965848      1.86e-04  
    7   -1198.9304881407      4.94e-05  
    8   -1198.9305075524      1.79e-05  
    9   -1198.9305105422      5.30e-06  Convergence criterion met
 ---------------------------------------
 SCF time:   CPU 68.72s  wall 72.00s 
 SCF   energy in the final basis set =    -1198.9305105422
 Total energy in the final basis set =    -1198.9305105422
 
 --------------------------------------------------------------
 
                    Orbital Energies (a.u.)
 --------------------------------------------------------------
 
 Alpha MOs
 -- Occupied --
******** -24.7319 -24.7279 -19.1803 -10.3514 -10.2590 -10.2454 -10.2417
-10.2092 -10.2080 -10.2030 -10.1994 -10.1984 -10.1976 -10.1893 -10.1876
 -9.4616  -7.2255  -7.2160  -7.2156  -1.2774  -1.2161  -1.0748  -0.8964
 -0.8497  -0.8216  -0.7805  -0.7765  -0.7367  -0.7215  -0.6583  -0.6468
 -0.6197  -0.5959  -0.5744  -0.5625  -0.5353  -0.5252  -0.5112  -0.4985
 -0.4769  -0.4714  -0.4668  -0.4539  -0.4401  -0.4342  -0.4306  -0.4274
 -0.4076  -0.4050  -0.4024  -0.3937  -0.3877  -0.3744  -0.3579  -0.3551
 -0.3303  -0.3106  -0.3052  -0.2883  -0.2709  -0.2361  -0.2133
 -- Virtual --
 -0.0256  -0.0107   0.0141   0.0434   0.0516   0.0906   0.1102   0.1192
  0.1291   0.1375   0.1448   0.1528   0.1574   0.1617   0.1695   0.1754
  0.1776   0.1790   0.2013   0.2116   0.2296   0.2466   0.2751   0.2973
  0.3154   0.3220   0.3412   0.3699   0.3932   0.4043   0.4117   0.4225
  0.4445   0.4540   0.4708   0.4883   0.5004   0.5076   0.5225   0.5294
  0.5375   0.5481   0.5568   0.5620   0.5636   0.5724   0.5791   0.5862
  0.5936   0.6031   0.6102   0.6179   0.6305   0.6514   0.6525   0.6612
  0.6794   0.6849   0.7026   0.7340   0.7651   0.7761   0.7954   0.8170
  0.8285   0.8353   0.8378   0.8516   0.8565   0.8601   0.8706   0.8765
  0.8830   0.9032   0.9105   0.9171   0.9227   0.9388   0.9483   0.9571
  0.9719   0.9777   0.9889   1.0037   1.0208   1.0403   1.0434   1.0845
  1.0983   1.1168   1.1313   1.1457   1.1591   1.1731   1.1917   1.2045
  1.2263   1.2493   1.2742   1.2873   1.3029   1.3232   1.3521   1.3574
  1.3671   1.3898   1.4123   1.4236   1.4430   1.4640   1.4791   1.4877
  1.5059   1.5381   1.5461   1.5699   1.6092   1.6356   1.6405   1.6639
  1.7140   1.7185   1.7623   1.7706   1.7734   1.7927   1.8134   1.8277
  1.8399   1.8560   1.8659   1.8870   1.9019   1.9171   1.9402   1.9680
  1.9740   1.9874   1.9930   2.0119   2.0213   2.0295   2.0495   2.0603
  2.0878   2.1170   2.1193   2.1569   2.1612   2.1825   2.2068   2.2211
  2.2269   2.2415   2.2617   2.2843   2.2985   2.3037   2.3212   2.3753
  2.3927   2.4065   2.4209   2.4514   2.5209   2.5343   2.5531   2.5775
  2.6066   2.6289   2.6415   2.6605   2.7123   2.7272   2.7443   2.7827
  2.8037   2.8590   2.9039   2.9135   2.9532   3.0083   3.0623   3.1307
  3.1923   3.3166   3.4474   4.0714   4.0796   4.1109   4.1339   4.1523
  4.1906   4.2469   4.2694   4.3225   4.4061   4.4511   4.4558   4.5683
  4.7721   4.9121   5.2918
 --------------------------------------------------------------
 
          Ground-State Mulliken Net Atomic Charges

     Atom                 Charge (a.u.)
  ----------------------------------------
      1 C                    -0.314822
      2 C                    -0.166691
      3 C                     0.097942
      4 C                    -0.184904
      5 C                    -0.067351
      6 Cl                   -0.022709
      7 C                    -0.190861
      8 C                     0.109859
      9 C                    -0.316739
     10 C                     0.576514
     11 F                    -0.227584
     12 F                    -0.252664
     13 C                     0.279844
     14 O                    -0.523522
     15 C                    -0.050056
     16 C                    -0.467752
     17 H                     0.146055
     18 H                     0.155267
     19 H                     0.153809
     20 H                     0.153490
     21 H                     0.150775
     22 H                     0.166360
     23 H                     0.159724
     24 H                     0.156746
     25 H                     0.161175
     26 H                     0.152124
     27 H                     0.165971
  ----------------------------------------
  Sum of atomic charges =     0.000000

 -----------------------------------------------------------------
                    Cartesian Multipole Moments
 -----------------------------------------------------------------
    Charge (ESU x 10^10)
                 0.0000
    Dipole Moment (Debye)
         X       0.8889      Y       2.5760      Z       0.7599
       Tot       2.8290
    Quadrupole Moments (Debye-Ang)
        XX    -105.1967     XY       0.2508     YY     -88.2576
        XZ       3.4877     YZ      -0.9738     ZZ     -97.4916
    Octopole Moments (Debye-Ang^2)
       XXX      54.1053    XXY      18.6841    XYY      18.1055
       YYY      -5.2215    XXZ      -2.6600    XYZ       3.6546
       YYZ       1.2210    XZZ      14.6540    YZZ      -5.8061
       ZZZ     -12.5713
    Hexadecapole Moments (Debye-Ang^3)
      XXXX   -2962.7639   XXXY     -21.2453   XXYY    -851.2360
      XYYY     -37.0068   YYYY   -2036.6112   XXXZ     -14.6360
      XXYZ      -0.0482   XYYZ       5.9499   YYYZ      -7.6259
      XXZZ    -553.5221   XYZZ     -28.7716   YYZZ    -417.3167
      XZZZ     -23.4089   YZZZ       4.2766   ZZZZ    -421.6058
 -----------------------------------------------------------------
 Total job time:  72.46s(wall), 69.18s(cpu) 
 Fri Aug 12 12:45:42 2022

        *************************************************************
        *                                                           *
        *  Thank you very much for using Q-Chem.  Have a nice day.  *
        *                                                           *
        *************************************************************


