
Running Job 1 of 1 fragments/C156/conf-3/spe_input.inp
qchem fragments/C156/conf-3/spe_input.inp_145230.0 /gpfs/fs0/scratch/a/aspuru/rhickman/descriptor_computation/qchem145230/ 0
/scinet/niagara/software/commercial/qc52/exe/qcprog.exe_s fragments/C156/conf-3/spe_input.inp_145230.0 /gpfs/fs0/scratch/a/aspuru/rhickman/descriptor_computation/qchem145230/
                  Welcome to Q-Chem
     A Quantum Leap Into The Future Of Chemistry


 Q-Chem 5.2, Q-Chem, Inc., Pleasanton, CA (2019)

 License issued to: SRG Alan Aspuru-Guzik, University of Toronto

 Yihan Shao,  Zhengting Gan,  E. Epifanovsky,  A. T. B. Gilbert,  M. Wormit,  
 J. Kussmann,  A. W. Lange,  A. Behn,  Jia Deng,  Xintian Feng,  D. Ghosh,  
 M. Goldey,  P. R. Horn,  L. D. Jacobson,  I. Kaliman,  T. Kus,  A. Landau,  
 Jie Liu,  E. I. Proynov,  R. M. Richard,  R. P. Steele,  E. J. Sundstrom,  
 H. L. Woodcock III,  P. M. Zimmerman,  D. Zuev,  B. Albrecht,  E. Alguire,  
 S. A. Baeppler,  D. Barton,  Z. Benda,  Y. A. Bernard,  E. J. Berquist,  
 K. B. Bravaya,  H. Burton,  D. Casanova,  Chun-Min Chang,  Yunqing Chen,  
 A. Chien,  K. D. Closser,  M. P. Coons,  S. Coriani,  S. Dasgupta,  
 A. L. Dempwolff,  M. Diedenhofen,  Hainam Do,  R. G. Edgar,  Po-Tung Fang,  
 S. Faraji,  S. Fatehi,  Qingguo Feng,  K. D. Fenk,  J. Fosso-Tande,  
 J. Gayvert,  Qinghui Ge,  A. Ghysels,  G. Gidofalvi,  J. Gomes,  
 J. Gonthier,  A. Gunina,  D. Hait,  M. W. D. Hanson-Heine,  
 P. H. P. Harbach,  A. W. Hauser,  M. F. Herbst,  J. E. Herr,  
 E. G. Hohenstein,  Z. C. Holden,  Kerwin Hui,  B. C. Huynh,  T.-C. Jagau,  
 Hyunjun Ji,  B. Kaduk,  K. Khistyaev,  Jaehoon Kim,  P. Klunzinger,  K. Koh,  
 D. Kosenkov,  L. Koulias,  T. Kowalczyk,  C. M. Krauter,  A. Kunitsa,  
 Ka Un Lao,  A. Laurent,  K. V. Lawler,  Joonho Lee,  D. Lefrancois,  
 S. Lehtola,  D. S. Levine,  Yi-Pei Li,  You-Sheng Lin,  Fenglai Liu,  
 E. Livshits,  A. Luenser,  P. Manohar,  E. Mansoor,  S. F. Manzer,  
 Shan-Ping Mao,  Yuezhi Mao,  N. Mardirossian,  A. V. Marenich,  
 T. Markovich,  L. A. Martinez-Martinez,  S. A. Maurer,  N. J. Mayhall,  
 S. C. McKenzie,  J.-M. Mewes,  P. Morgante,  A. F. Morrison,  
 J. W. Mullinax,  K. Nanda,  T. S. Nguyen-Beck,  R. Olivares-Amaya,  
 J. A. Parkhill,  Zheng Pei,  T. M. Perrine,  F. Plasser,  P. Pokhilko,  
 S. Prager,  A. Prociuk,  E. Ramos,  D. R. Rehn,  F. Rob,  M. Scheurer,  
 M. Schneider,  N. Sergueev,  S. M. Sharada,  S. Sharma,  D. W. Small,  
 T. Stauch,  T. Stein,  Yu-Chuan Su,  A. J. W. Thom,  A. Tkatchenko,  
 T. Tsuchimochi,  N. M. Tubman,  L. Vogt,  M. L. Vidal,  O. Vydrov,  
 M. A. Watson,  J. Wenzel,  M. de Wergifosse,  T. A. Wesolowski,  A. White,  
 J. Witte,  A. Yamada,  Jun Yang,  K. Yao,  S. Yeganeh,  S. R. Yost,  
 Zhi-Qiang You,  A. Zech,  Igor Ying Zhang,  Xing Zhang,  Yan Zhao,  
 Ying Zhu,  B. R. Brooks,  G. K. L. Chan,  C. J. Cramer,  M. S. Gordon,  
 W. J. Hehre,  A. Klamt,  M. W. Schmidt,  C. D. Sherrill,  D. G. Truhlar,  
 A. Aspuru-Guzik,  R. Baer,  A. T. Bell,  N. A. Besley,  Jeng-Da Chai,  
 A. E. DePrince, III,  R. A. DiStasio Jr.,  A. Dreuw,  B. D. Dunietz,  
 T. R. Furlani,  Chao-Ping Hsu,  Yousung Jung,  Jing Kong,  D. S. Lambrecht,  
 WanZhen Liang,  C. Ochsenfeld,  V. A. Rassolov,  L. V. Slipchenko,  
 J. E. Subotnik,  T. Van Voorhis,  J. M. Herbert,  A. I. Krylov,  
 P. M. W. Gill,  M. Head-Gordon

 Contributors to earlier versions of Q-Chem not listed above: 
 R. D. Adamson,  B. Austin,  J. Baker,  G. J. O. Beran,  K. Brandhorst,  
 S. T. Brown,  E. F. C. Byrd,  A. K. Chakraborty,  C.-L. Cheng,  
 Siu Hung Chien,  D. M. Chipman,  D. L. Crittenden,  H. Dachsel,  
 R. J. Doerksen,  A. D. Dutoi,  L. Fusti-Molnar,  W. A. Goddard III,  
 A. Golubeva-Zadorozhnaya,  S. R. Gwaltney,  G. Hawkins,  A. Heyden,  
 S. Hirata,  G. Kedziora,  F. J. Keil,  C. Kelley,  Jihan Kim,  R. A. King,  
 R. Z. Khaliullin,  P. P. Korambath,  W. Kurlancheek,  A. M. Lee,  M. S. Lee,  
 S. V. Levchenko,  Ching Yeh Lin,  D. Liotard,  R. C. Lochan,  I. Lotan,  
 P. E. Maslen,  N. Nair,  D. P. O'Neill,  D. Neuhauser,  E. Neuscamman,  
 C. M. Oana,  R. Olson,  B. Peters,  R. Peverati,  P. A. Pieniazek,  
 Y. M. Rhee,  J. Ritchie,  M. A. Rohrdanz,  E. Rosta,  N. J. Russ,  
 H. F. Schaefer III,  N. E. Schultz,  N. Shenvi,  A. C. Simmonett,  A. Sodt,  
 D. Stuck,  K. S. Thanthiriwatte,  V. Vanovschi,  Tao Wang,  A. Warshel,  
 C. F. Williams,  Q. Wu,  X. Xu,  W. Zhang

 Please cite Q-Chem as follows:
 Y. Shao et al., Mol. Phys. 113, 184-215 (2015)
 DOI: 10.1080/00268976.2014.952696

 Q-Chem 5.2.1 for Intel X86 EM64T Linux

 Parts of Q-Chem use Armadillo 8.300.2 (Tropical Shenanigans).
 http://arma.sourceforge.net/

 Q-Chem begins on Mon Feb  7 17:22:53 2022  

Host: 
0

     Scratch files written to /gpfs/fs0/scratch/a/aspuru/rhickman/descriptor_computation/qchem145230//
 Jul1719 |scratch|qcdevops|jenkins|workspace|build_RNUM -1
Processing $rem in /scinet/niagara/software/commercial/qc52/config/preferences:
	 MEM_TOTAL  4000 
NAlpha2: 102
NElect   102
Mult     1

Checking the input file for inconsistencies... 	...done.

--------------------------------------------------------------
User input:
--------------------------------------------------------------
$molecule
0 1
C        -3.42104663420000   -2.82883176780000    0.03420741490000
C        -3.33735777550000   -1.50571808490000   -0.05592507900000
C        -2.08033058290000   -0.80518862260000   -0.00939980250000
N        -0.89306572570000   -1.31912822270000    0.12121623330000
C        -0.02911244380000   -0.26637401100000    0.11489631890000
C         1.41963690880000   -0.48710954590000    0.23730005590000
O         1.94956880740000   -1.56601079040000    0.26079694550000
O         2.08989913840000    0.67719746060000    0.33086070100000
C         3.51213245120000    0.58507052420000    0.43219677680000
C         4.15952421730000    0.43759214580000   -0.93729849510000
C        -0.76316231780000    0.90497698380000   -0.02907766370000
C        -0.37851770650000    2.28684052120000   -0.10876214340000
C        -1.25030267240000    3.28244332850000   -0.25327208560000
O        -2.06332207580000    0.54546533770000   -0.10728787540000
H        -4.36739242970000   -3.33883836620000   -0.00195242530000
H        -2.53099728550000   -3.42278086490000    0.14652027040000
H        -4.20772002760000   -0.87503844440000   -0.16955941820000
H         3.76676574460000   -0.27152031280000    1.06461966980000
H         3.82139169180000    1.51298182510000    0.91821817710000
H         3.84592728820000   -0.49706725270000   -1.39539532860000
H         5.24041065020000    0.43215886270000   -0.83019630470000
H         3.86954688780000    1.26318316380000   -1.58316063050000
H         0.68337705260000    2.46277452450000   -0.04073422670000
H        -2.30958393870000    3.09824321480000   -0.31747124160000
H        -0.92805856000000    4.30693923630000   -0.31050578010000
$end

$rem
BASIS = 6-31G*
GUI = 2
METHOD = B3LYP
PRINT_ORBITALS false
MOLDEN_FORMAT false
--------------------------------------------------------------
 ----------------------------------------------------------------
             Standard Nuclear Orientation (Angstroms)
    I     Atom           X                Y                Z
 ----------------------------------------------------------------
    1      C       4.0762121070    -1.8542472645     0.1194831255
    2      C       3.6509258015    -0.5953958055     0.1329765253
    3      C       2.2561080747    -0.2491539069     0.0456635912
    4      N       1.2448635523    -1.0603038287    -0.0553939318
    5      C       0.1374845202    -0.2694459558    -0.1101858010
    6      C      -1.2024239277    -0.8653928390    -0.2200684725
    7      O      -1.4340407188    -2.0444862849    -0.1813370353
    8      O      -2.1501582121     0.0777555647    -0.3809618249
    9      C      -3.4981321556    -0.3861425264    -0.4772363155
   10      C      -4.1060185265    -0.6201665785     0.8982963718
   11      C       0.5403962181     1.0585099575    -0.0339222170
   12      C      -0.1905895204     2.2952425883    -0.0343459128
   13      C       0.3908936656     3.4895733328     0.0526510823
   14      O       1.8879532160     1.0540010279     0.0653282944
   15      H       5.1217678590    -2.0980919720     0.1853432583
   16      H       3.3724476884    -2.6643078328     0.0414121998
   17      H       4.3261342428     0.2450351759     0.2102380821
   18      H      -3.5122274840    -1.3133378072    -1.0591769694
   19      H      -4.0299502324     0.4010070448    -1.0161635348
   20      H      -3.5678344766    -1.4142511842     1.4097369856
   21      H      -5.1467545418    -0.9121405921     0.7913589959
   22      H      -4.0499596288     0.2870726553     1.4954560248
   23      H      -1.2606133131     2.1852291250    -0.1127498110
   24      H       1.4605957203     3.5907254897     0.1277095257
   25      H      -0.1868225232     4.3967382263     0.0504854273
 ----------------------------------------------------------------
 Molecular Point Group                 C1    NOp =  1
 Largest Abelian Subgroup              C1    NOp =  1
 Nuclear Repulsion Energy =         862.91214903 hartrees
 There are       51 alpha and       51 beta electrons
 Requested basis set is 6-31G(d)
 There are 78 shells and 232 basis functions

 Total QAlloc Memory Limit   4000 MB
 Mega-Array Size       188 MB
 MEM_STATIC part       192 MB
 A cutoff of  1.0D-08 yielded   1829 shell pairs
 There are     18434 function pairs
 Smallest overlap matrix eigenvalue = 8.33E-04

 Scale SEOQF with 1.000000e-01/1.000000e-01/1.000000e+00

 Standard Electronic Orientation quadrupole field applied
 Nucleus-field energy     =     0.0000000237 hartrees
 Guess from superposition of atomic densities
 Warning:  Energy on first SCF cycle will be non-variational
 SAD guess density has 102.000000 electrons

 -----------------------------------------------------------------------
  General SCF calculation program by
  Eric Jon Sundstrom, Paul Horn, Yuezhi Mao, Dmitri Zuev, Alec White,
  David Stuck, Shaama M.S., Shane Yost, Joonho Lee, David Small,
  Daniel Levine, Susi Lehtola, Hugh Burton, Evgeny Epifanovsky,
  Bang C. Huynh
 -----------------------------------------------------------------------
 Exchange:     0.2000 Hartree-Fock + 0.0800 Slater + 0.7200 B88
 Correlation:  0.1900 VWN1RPA + 0.8100 LYP
 Using SG-1 standard quadrature grid
 A restricted SCF calculation will be
 performed using DIIS
 SCF converges when DIIS error is below 1.0e-05
 ---------------------------------------
  Cycle       Energy         DIIS error
 ---------------------------------------
    1    -671.2454039134      5.43e-02  
    2    -667.8180312704      6.50e-03  
    3    -667.4305085494      1.07e-02  
    4    -668.0336478827      2.69e-03  
    5    -668.0734795112      6.59e-04  
    6    -668.0753141529      2.87e-04  
    7    -668.0757751933      6.72e-05  
    8    -668.0758011827      2.08e-05  
    9    -668.0758037616      7.16e-06  Convergence criterion met
 ---------------------------------------
 SCF time:   CPU 33.98s  wall 107.00s 
 SCF   energy in the final basis set =     -668.0758037616
 Total energy in the final basis set =     -668.0758037616
 
 --------------------------------------------------------------
 
                    Orbital Energies (a.u.)
 --------------------------------------------------------------
 
 Alpha MOs
 -- Occupied --
-19.2386 -19.1917 -19.1318 -14.3319 -10.3161 -10.2830 -10.2663 -10.2432
-10.2291 -10.2087 -10.2058 -10.1971 -10.1960 -10.1802  -1.1535  -1.1076
 -1.0174  -0.9349  -0.8365  -0.7963  -0.7785  -0.7389  -0.6892  -0.6492
 -0.6376  -0.5884  -0.5818  -0.5604  -0.5293  -0.4968  -0.4946  -0.4817
 -0.4715  -0.4615  -0.4501  -0.4393  -0.4389  -0.4134  -0.4027  -0.3873
 -0.3864  -0.3776  -0.3716  -0.3462  -0.3411  -0.3190  -0.2996  -0.2906
 -0.2899  -0.2742  -0.2185
 -- Virtual --
 -0.0625  -0.0362   0.0402   0.0898   0.0996   0.1089   0.1201   0.1275
  0.1398   0.1447   0.1490   0.1522   0.1574   0.1709   0.1747   0.1898
  0.2009   0.2103   0.2273   0.2346   0.2693   0.2828   0.3082   0.3235
  0.3299   0.3467   0.3596   0.3960   0.4076   0.4581   0.4864   0.5001
  0.5048   0.5232   0.5339   0.5375   0.5482   0.5541   0.5628   0.5733
  0.5773   0.5898   0.5972   0.6133   0.6247   0.6443   0.6539   0.6555
  0.6620   0.6707   0.6945   0.6982   0.7140   0.7507   0.7570   0.7875
  0.8067   0.8299   0.8401   0.8437   0.8495   0.8542   0.8595   0.8792
  0.8921   0.8946   0.9021   0.9092   0.9201   0.9454   0.9627   0.9707
  0.9779   1.0040   1.0169   1.0225   1.0287   1.0574   1.0871   1.0916
  1.1054   1.1484   1.1545   1.1732   1.2208   1.2317   1.2636   1.2833
  1.3008   1.3128   1.3339   1.3490   1.3571   1.3889   1.4118   1.4383
  1.4477   1.4731   1.4814   1.4970   1.5081   1.5316   1.6074   1.6490
  1.6530   1.6706   1.6962   1.7177   1.7458   1.7944   1.8024   1.8266
  1.8420   1.8662   1.8757   1.8881   1.9105   1.9283   1.9450   1.9554
  1.9663   1.9940   2.0045   2.0261   2.0504   2.0640   2.0810   2.1093
  2.1231   2.1418   2.1638   2.2015   2.2101   2.2184   2.2432   2.2532
  2.2772   2.2955   2.3097   2.3318   2.3504   2.3774   2.4145   2.4164
  2.4623   2.5101   2.5291   2.5723   2.5995   2.6072   2.6337   2.6572
  2.6602   2.7039   2.7377   2.7560   2.7669   2.8085   2.8240   2.8796
  2.9517   2.9842   3.0665   3.1374   3.2100   3.2879   3.3972   3.9654
  4.0506   4.0689   4.1142   4.1348   4.1856   4.2170   4.2693   4.3852
  4.4395   4.4533   4.6053   4.7053   4.7692
 --------------------------------------------------------------
 
          Ground-State Mulliken Net Atomic Charges

     Atom                 Charge (a.u.)
  ----------------------------------------
      1 C                    -0.325516
      2 C                    -0.118291
      3 C                     0.510118
      4 N                    -0.494522
      5 C                     0.139197
      6 C                     0.593759
      7 O                    -0.468639
      8 O                    -0.478876
      9 C                    -0.045541
     10 C                    -0.464530
     11 C                     0.296997
     12 C                    -0.110246
     13 C                    -0.341877
     14 O                    -0.483410
     15 H                     0.155173
     16 H                     0.186854
     17 H                     0.150203
     18 H                     0.172260
     19 H                     0.149793
     20 H                     0.181521
     21 H                     0.152410
     22 H                     0.154439
     23 H                     0.173715
     24 H                     0.161846
     25 H                     0.153161
  ----------------------------------------
  Sum of atomic charges =     0.000000

 -----------------------------------------------------------------
                    Cartesian Multipole Moments
 -----------------------------------------------------------------
    Charge (ESU x 10^10)
                 0.0000
    Dipole Moment (Debye)
         X       0.0343      Y       2.9625      Z       0.1262
       Tot       2.9654
    Quadrupole Moments (Debye-Ang)
        XX     -61.7972     XY      -3.3082     YY     -82.4554
        XZ       1.1735     YZ      -0.1791     ZZ     -81.7178
    Octopole Moments (Debye-Ang^2)
       XXX      -1.0313    XXY     -13.5970    XYY       9.0751
       YYY      27.3063    XXZ      -1.3938    XYZ       0.0138
       YYZ       1.1963    XZZ      -9.7437    YZZ      -4.8150
       ZZZ      -3.0404
    Hexadecapole Moments (Debye-Ang^3)
      XXXX   -2653.1478   XXXY     -26.6127   XXYY    -677.6696
      XYYY     -26.9751   YYYY   -1169.1489   XXXZ      38.0543
      XXYZ      -1.3118   XYYZ       3.2361   YYYZ       1.4126
      XXZZ    -554.5034   XYZZ      14.0366   YYZZ    -245.6281
      XZZZ       5.6994   YZZZ       2.8793   ZZZZ    -150.1729
 -----------------------------------------------------------------
Archival summary:
1\1\nia1977.scinet.local\SP\ProcedureUnspecified\6-31G*\311011\rhickman\MonFeb717:24:402022MonFeb717:24:402022\0\\#,ProcedureUnspecified,6-31G*,\\0,1\O\C,1,1.35121\C,1,1.3543,2,105.858\N,3,1.3003,1,112.953,2,-0.128305,0\C,4,1.36189,3,105.857,1,0.149614,0\C,2,1.43661,1,120.687,3,179.581,0\H,6,1.07852,2,114.647,1,-179.69,0\C,6,1.33121,2,123.372,1,0.390297,0\H,8,1.0755,6,121.465,2,-179.94,0\H,8,1.07709,6,121.508,2,0.0989965,0\C,3,1.4398,1,119.595,2,179.857,0\H,11,1.08083,3,114.995,1,-0.0311989,0\C,11,1.32882,3,122.497,1,179.973,0\H,13,1.07563,11,121.684,3,179.992,0\H,13,1.07591,11,120.308,3,-0.0145782,0\C,5,1.47057,4,120.567,3,-179.635,0\O,16,1.20225,5,124.79,4,5.09494,0\O,16,1.34671,5,111.489,4,-174.453,0\C,18,1.42881,16,116.397,5,-178.999,0\H,19,1.09219,18,104.989,16,-156.151,0\H,19,1.09478,18,108.841,16,-38.4245,0\C,19,1.52197,18,111.459,16,83.302,0\H,22,1.08619,19,109.575,18,176.526,0\H,22,1.0871,19,109.864,18,-63.8404,0\H,22,1.08758,19,110.328,18,56.353,0\\\@

 Total job time:  106.61s(wall), 34.16s(cpu) 
 Mon Feb  7 17:24:40 2022

        *************************************************************
        *                                                           *
        *  Thank you very much for using Q-Chem.  Have a nice day.  *
        *                                                           *
        *************************************************************


