17
 energy: -25.203175809367 gnorm: 0.000053687736 xtb: 6.4.1 (23d549d)
C         2.91367189680000    1.16942554000000   -0.00217980680000
C         1.58654139410000    1.20683033030000    0.00324027760000
C         0.72047603750000    0.04793237360000    0.00094022220000
C         1.07957981850000   -1.27400112430000    0.00123603870000
O         0.00003453320000   -2.07001227290000    0.00001831490000
C        -1.07953527490000   -1.27403768730000   -0.00127838940000
C        -0.72048034460000    0.04790887060000   -0.00078221260000
C        -1.58658141080000    1.20678116660000   -0.00299396910000
C        -2.91371143840000    1.16938314730000    0.00180456020000
H         3.50074615470000    2.07140324020000    0.00046372770000
H         3.46035358870000    0.24243781070000   -0.00937958710000
H         1.08392028790000    2.16461150750000    0.01009209580000
H         2.03741406140000   -1.75444067130000    0.00268813680000
H        -2.03735757590000   -1.75450105810000   -0.00276401800000
H        -1.08398753360000    2.16456218530000   -0.00932503090000
H        -3.46044830070000    0.24245824070000    0.00857811330000
H        -3.50072026930000    2.07141051130000   -0.00048592230000
