
Running Job 1 of 1 fragments/C075/conf-1/spe_input.inp
qchem fragments/C075/conf-1/spe_input.inp_119894.0 /gpfs/fs0/scratch/a/aspuru/rhickman/descriptor_computation/qchem119894/ 0
/scinet/niagara/software/commercial/qc52/exe/qcprog.exe_s fragments/C075/conf-1/spe_input.inp_119894.0 /gpfs/fs0/scratch/a/aspuru/rhickman/descriptor_computation/qchem119894/
                  Welcome to Q-Chem
     A Quantum Leap Into The Future Of Chemistry


 Q-Chem 5.2, Q-Chem, Inc., Pleasanton, CA (2019)

 License issued to: SRG Alan Aspuru-Guzik, University of Toronto

 Yihan Shao,  Zhengting Gan,  E. Epifanovsky,  A. T. B. Gilbert,  M. Wormit,  
 J. Kussmann,  A. W. Lange,  A. Behn,  Jia Deng,  Xintian Feng,  D. Ghosh,  
 M. Goldey,  P. R. Horn,  L. D. Jacobson,  I. Kaliman,  T. Kus,  A. Landau,  
 Jie Liu,  E. I. Proynov,  R. M. Richard,  R. P. Steele,  E. J. Sundstrom,  
 H. L. Woodcock III,  P. M. Zimmerman,  D. Zuev,  B. Albrecht,  E. Alguire,  
 S. A. Baeppler,  D. Barton,  Z. Benda,  Y. A. Bernard,  E. J. Berquist,  
 K. B. Bravaya,  H. Burton,  D. Casanova,  Chun-Min Chang,  Yunqing Chen,  
 A. Chien,  K. D. Closser,  M. P. Coons,  S. Coriani,  S. Dasgupta,  
 A. L. Dempwolff,  M. Diedenhofen,  Hainam Do,  R. G. Edgar,  Po-Tung Fang,  
 S. Faraji,  S. Fatehi,  Qingguo Feng,  K. D. Fenk,  J. Fosso-Tande,  
 J. Gayvert,  Qinghui Ge,  A. Ghysels,  G. Gidofalvi,  J. Gomes,  
 J. Gonthier,  A. Gunina,  D. Hait,  M. W. D. Hanson-Heine,  
 P. H. P. Harbach,  A. W. Hauser,  M. F. Herbst,  J. E. Herr,  
 E. G. Hohenstein,  Z. C. Holden,  Kerwin Hui,  B. C. Huynh,  T.-C. Jagau,  
 Hyunjun Ji,  B. Kaduk,  K. Khistyaev,  Jaehoon Kim,  P. Klunzinger,  K. Koh,  
 D. Kosenkov,  L. Koulias,  T. Kowalczyk,  C. M. Krauter,  A. Kunitsa,  
 Ka Un Lao,  A. Laurent,  K. V. Lawler,  Joonho Lee,  D. Lefrancois,  
 S. Lehtola,  D. S. Levine,  Yi-Pei Li,  You-Sheng Lin,  Fenglai Liu,  
 E. Livshits,  A. Luenser,  P. Manohar,  E. Mansoor,  S. F. Manzer,  
 Shan-Ping Mao,  Yuezhi Mao,  N. Mardirossian,  A. V. Marenich,  
 T. Markovich,  L. A. Martinez-Martinez,  S. A. Maurer,  N. J. Mayhall,  
 S. C. McKenzie,  J.-M. Mewes,  P. Morgante,  A. F. Morrison,  
 J. W. Mullinax,  K. Nanda,  T. S. Nguyen-Beck,  R. Olivares-Amaya,  
 J. A. Parkhill,  Zheng Pei,  T. M. Perrine,  F. Plasser,  P. Pokhilko,  
 S. Prager,  A. Prociuk,  E. Ramos,  D. R. Rehn,  F. Rob,  M. Scheurer,  
 M. Schneider,  N. Sergueev,  S. M. Sharada,  S. Sharma,  D. W. Small,  
 T. Stauch,  T. Stein,  Yu-Chuan Su,  A. J. W. Thom,  A. Tkatchenko,  
 T. Tsuchimochi,  N. M. Tubman,  L. Vogt,  M. L. Vidal,  O. Vydrov,  
 M. A. Watson,  J. Wenzel,  M. de Wergifosse,  T. A. Wesolowski,  A. White,  
 J. Witte,  A. Yamada,  Jun Yang,  K. Yao,  S. Yeganeh,  S. R. Yost,  
 Zhi-Qiang You,  A. Zech,  Igor Ying Zhang,  Xing Zhang,  Yan Zhao,  
 Ying Zhu,  B. R. Brooks,  G. K. L. Chan,  C. J. Cramer,  M. S. Gordon,  
 W. J. Hehre,  A. Klamt,  M. W. Schmidt,  C. D. Sherrill,  D. G. Truhlar,  
 A. Aspuru-Guzik,  R. Baer,  A. T. Bell,  N. A. Besley,  Jeng-Da Chai,  
 A. E. DePrince, III,  R. A. DiStasio Jr.,  A. Dreuw,  B. D. Dunietz,  
 T. R. Furlani,  Chao-Ping Hsu,  Yousung Jung,  Jing Kong,  D. S. Lambrecht,  
 WanZhen Liang,  C. Ochsenfeld,  V. A. Rassolov,  L. V. Slipchenko,  
 J. E. Subotnik,  T. Van Voorhis,  J. M. Herbert,  A. I. Krylov,  
 P. M. W. Gill,  M. Head-Gordon

 Contributors to earlier versions of Q-Chem not listed above: 
 R. D. Adamson,  B. Austin,  J. Baker,  G. J. O. Beran,  K. Brandhorst,  
 S. T. Brown,  E. F. C. Byrd,  A. K. Chakraborty,  C.-L. Cheng,  
 Siu Hung Chien,  D. M. Chipman,  D. L. Crittenden,  H. Dachsel,  
 R. J. Doerksen,  A. D. Dutoi,  L. Fusti-Molnar,  W. A. Goddard III,  
 A. Golubeva-Zadorozhnaya,  S. R. Gwaltney,  G. Hawkins,  A. Heyden,  
 S. Hirata,  G. Kedziora,  F. J. Keil,  C. Kelley,  Jihan Kim,  R. A. King,  
 R. Z. Khaliullin,  P. P. Korambath,  W. Kurlancheek,  A. M. Lee,  M. S. Lee,  
 S. V. Levchenko,  Ching Yeh Lin,  D. Liotard,  R. C. Lochan,  I. Lotan,  
 P. E. Maslen,  N. Nair,  D. P. O'Neill,  D. Neuhauser,  E. Neuscamman,  
 C. M. Oana,  R. Olson,  B. Peters,  R. Peverati,  P. A. Pieniazek,  
 Y. M. Rhee,  J. Ritchie,  M. A. Rohrdanz,  E. Rosta,  N. J. Russ,  
 H. F. Schaefer III,  N. E. Schultz,  N. Shenvi,  A. C. Simmonett,  A. Sodt,  
 D. Stuck,  K. S. Thanthiriwatte,  V. Vanovschi,  Tao Wang,  A. Warshel,  
 C. F. Williams,  Q. Wu,  X. Xu,  W. Zhang

 Please cite Q-Chem as follows:
 Y. Shao et al., Mol. Phys. 113, 184-215 (2015)
 DOI: 10.1080/00268976.2014.952696

 Q-Chem 5.2.1 for Intel X86 EM64T Linux

 Parts of Q-Chem use Armadillo 8.300.2 (Tropical Shenanigans).
 http://arma.sourceforge.net/

 Q-Chem begins on Mon Feb  7 15:58:15 2022  

Host: 
0

     Scratch files written to /gpfs/fs0/scratch/a/aspuru/rhickman/descriptor_computation/qchem119894//
 Jul1719 |scratch|qcdevops|jenkins|workspace|build_RNUM -1
Processing $rem in /scinet/niagara/software/commercial/qc52/config/preferences:
	 MEM_TOTAL  4000 
NAlpha2: 100
NElect   100
Mult     1

Checking the input file for inconsistencies... 	...done.

--------------------------------------------------------------
User input:
--------------------------------------------------------------
$molecule
0 1
C        -4.54228352130000   -1.36936577060000   -0.31799989490000
C        -3.75398224620000   -0.30257363590000   -0.26651399930000
C        -2.32891062910000   -0.28790940150000    0.03971793920000
C        -1.60795723590000   -1.43233393940000    0.38307829120000
C        -0.26296982140000   -1.34370455990000    0.67636474180000
C         0.42555414210000   -0.13130989190000    0.62352725220000
C         1.88660702920000   -0.11731464970000    0.96104444980000
C         2.79337875920000   -0.43483177060000   -0.22981054550000
O         3.93694911540000   -0.08722819680000   -0.28683767120000
O         2.23539366050000   -1.16146512430000   -1.20567832390000
C        -0.27868912810000    1.02454462180000    0.26115397160000
C         0.32876512170000    2.35507748920000    0.15691310920000
C         1.49079431680000    2.64855145940000   -0.40827977310000
C        -1.64295359870000    0.92303999500000    0.00224528330000
H        -5.58811040990000   -1.27937739040000   -0.55587005820000
H        -4.18837333450000   -2.36847323860000   -0.13010089620000
H        -4.17782402350000    0.67288879280000   -0.47187186080000
H        -2.09886009130000   -2.39067989640000    0.43818582190000
H         0.26904995840000   -2.23727635720000    0.97734876400000
H         2.10248105890000   -0.88560964380000    1.71038414620000
H         2.19891059410000    0.84441469190000    1.36894089220000
H         1.29749710400000   -1.34440683490000   -1.02606142870000
H        -0.29182681540000    3.15718007490000    0.53904586950000
H         2.13100402540000    1.90916888510000   -0.85743896130000
H         1.83931861270000    3.66579919490000   -0.46555068970000
H        -2.18420839210000    1.82304897280000   -0.25568045880000
$end

$rem
BASIS = 6-31G*
GUI = 2
METHOD = B3LYP
PRINT_ORBITALS false
MOLDEN_FORMAT false
--------------------------------------------------------------
 ----------------------------------------------------------------
             Standard Nuclear Orientation (Angstroms)
    I     Atom           X                Y                Z
 ----------------------------------------------------------------
    1      C       4.6577343699    -0.6331994063     0.3903369799
    2      C       3.7083942346     0.2924401932     0.3266204530
    3      C       2.3042048670     0.0773655031    -0.0002086330
    4      C       1.7824603085    -1.1678844806    -0.3530722655
    5      C       0.4451705947    -1.2970576147    -0.6658561796
    6      C      -0.4307169908    -0.2117829850    -0.6239301091
    7      C      -1.8698533629    -0.4332767543    -0.9825612244
    8      C      -2.7305377369    -0.8948612416     0.1952969512
    9      O      -3.9159223999    -0.7364938386     0.2355022176
   10      O      -2.0766922239    -1.5234276213     1.1797011738
   11      C       0.0724194564     1.0420200405    -0.2523062079
   12      C      -0.7432803364     2.2568887943    -0.1579012659
   13      C      -1.9454618334     2.3580607637     0.3901915152
   14      C       1.4313048911     1.1616522277     0.0263924807
   15      H       5.6717840349    -0.3759528374     0.6432430569
   16      H       4.4724846886    -1.6760357632     0.1981155580
   17      H       3.9662163600     1.3232021810     0.5373290892
   18      H       2.4223634328    -2.0343373525    -0.4003251916
   19      H       0.0687591362    -2.2643145313    -0.9738098381
   20      H      -1.9480623360    -1.2251669893    -1.7343470898
   21      H      -2.3273952109     0.4660689817    -1.3956823390
   22      H      -1.1190763903    -1.5522991541     1.0138150712
   23      H      -0.2548630768     3.1492431585    -0.5316399797
   24      H      -2.4643272196     1.5243322735     0.8306169393
   25      H      -2.4544076042     3.3056214435     0.4416216477
   26      H       1.8164104046     2.1368200285     0.2914209767
 ----------------------------------------------------------------
 Molecular Point Group                 C1    NOp =  1
 Largest Abelian Subgroup              C1    NOp =  1
 Nuclear Repulsion Energy =         832.29605601 hartrees
 There are       50 alpha and       50 beta electrons
 Requested basis set is 6-31G(d)
 There are 80 shells and 234 basis functions

 Total QAlloc Memory Limit   4000 MB
 Mega-Array Size       188 MB
 MEM_STATIC part       192 MB
 A cutoff of  1.0D-08 yielded   2178 shell pairs
 There are     19893 function pairs
 Smallest overlap matrix eigenvalue = 3.36E-04

 Scale SEOQF with 1.000000e-02/1.000000e-01/1.000000e-01

 Standard Electronic Orientation quadrupole field applied
 Nucleus-field energy     =     0.0000000109 hartrees
 Guess from superposition of atomic densities
 Warning:  Energy on first SCF cycle will be non-variational
 SAD guess density has 100.000000 electrons

 -----------------------------------------------------------------------
  General SCF calculation program by
  Eric Jon Sundstrom, Paul Horn, Yuezhi Mao, Dmitri Zuev, Alec White,
  David Stuck, Shaama M.S., Shane Yost, Joonho Lee, David Small,
  Daniel Levine, Susi Lehtola, Hugh Burton, Evgeny Epifanovsky,
  Bang C. Huynh
 -----------------------------------------------------------------------
 Exchange:     0.2000 Hartree-Fock + 0.0800 Slater + 0.7200 B88
 Correlation:  0.1900 VWN1RPA + 0.8100 LYP
 Using SG-1 standard quadrature grid
 A restricted SCF calculation will be
 performed using DIIS
 SCF converges when DIIS error is below 1.0e-05
 ---------------------------------------
  Cycle       Energy         DIIS error
 ---------------------------------------
    1    -618.1042145229      5.33e-02  
    2    -614.6510998037      6.41e-03  
    3    -614.4325351225      9.31e-03  
    4    -614.8771046587      2.54e-03  
    5    -614.9136587427      4.76e-04  
    6    -614.9145084920      2.53e-04  
    7    -614.9148642299      4.02e-05  
    8    -614.9148721814      2.09e-05  
    9    -614.9148750012      5.48e-06  Convergence criterion met
 ---------------------------------------
 SCF time:   CPU 39.76s  wall 40.00s 
 SCF   energy in the final basis set =     -614.9148750012
 Total energy in the final basis set =     -614.9148750012
 
 --------------------------------------------------------------
 
                    Orbital Energies (a.u.)
 --------------------------------------------------------------
 
 Alpha MOs
 -- Occupied --
-19.1889 -19.1262 -10.3140 -10.2152 -10.2123 -10.2108 -10.2069 -10.2059
-10.2044 -10.2026 -10.2021 -10.2011 -10.1921 -10.1902  -1.1007  -1.0167
 -0.8889  -0.8260  -0.8004  -0.7721  -0.7470  -0.7140  -0.6440  -0.6241
 -0.6141  -0.6012  -0.5511  -0.5254  -0.5107  -0.5030  -0.4819  -0.4642
 -0.4606  -0.4453  -0.4401  -0.4335  -0.4185  -0.3960  -0.3957  -0.3837
 -0.3785  -0.3700  -0.3566  -0.3472  -0.3207  -0.3101  -0.2993  -0.2678
 -0.2512  -0.2319
 -- Virtual --
 -0.0509  -0.0321   0.0119   0.0225   0.0582   0.0882   0.0952   0.1008
  0.1175   0.1194   0.1365   0.1536   0.1585   0.1672   0.1721   0.1943
  0.2010   0.2197   0.2304   0.2358   0.2788   0.3023   0.3053   0.3197
  0.3365   0.3418   0.3611   0.3777   0.3943   0.4251   0.4542   0.4933
  0.5034   0.5073   0.5176   0.5263   0.5425   0.5556   0.5566   0.5713
  0.5735   0.5875   0.5924   0.5925   0.6031   0.6199   0.6220   0.6470
  0.6558   0.6640   0.6775   0.6867   0.6907   0.7019   0.7274   0.7366
  0.7449   0.7678   0.7965   0.8040   0.8158   0.8233   0.8508   0.8547
  0.8649   0.8746   0.8781   0.8924   0.9014   0.9169   0.9251   0.9433
  0.9487   0.9599   0.9714   0.9873   1.0012   1.0035   1.0357   1.0669
  1.0765   1.0836   1.1062   1.1248   1.1399   1.1513   1.1829   1.1946
  1.2095   1.2398   1.2574   1.2864   1.3079   1.3120   1.3628   1.4098
  1.4187   1.4439   1.4532   1.4658   1.4763   1.4958   1.5020   1.5252
  1.5513   1.5629   1.6274   1.6326   1.6648   1.6874   1.7205   1.7280
  1.7604   1.7931   1.8017   1.8151   1.8265   1.8442   1.8673   1.8740
  1.9142   1.9284   1.9340   1.9400   1.9753   1.9866   1.9952   2.0011
  2.0164   2.0519   2.0676   2.1086   2.1149   2.1534   2.1718   2.1943
  2.2127   2.2227   2.2610   2.2700   2.2849   2.3089   2.3385   2.3688
  2.3852   2.3979   2.4344   2.4422   2.4956   2.5120   2.5412   2.5724
  2.6257   2.6393   2.6674   2.6783   2.6946   2.7273   2.7496   2.7655
  2.8385   2.8701   2.8807   2.9463   2.9728   3.0082   3.0579   3.1322
  3.2167   3.4456   3.9441   4.0790   4.1044   4.1332   4.1401   4.1610
  4.1664   4.2429   4.2869   4.3343   4.4042   4.5116   4.5466   4.7797
 --------------------------------------------------------------
 
          Ground-State Mulliken Net Atomic Charges

     Atom                 Charge (a.u.)
  ----------------------------------------
      1 C                    -0.351037
      2 C                    -0.111448
      3 C                     0.185721
      4 C                    -0.171744
      5 C                    -0.224825
      6 C                     0.059733
      7 C                    -0.457466
      8 C                     0.597457
      9 O                    -0.449009
     10 O                    -0.566641
     11 C                     0.127992
     12 C                    -0.143047
     13 C                    -0.345191
     14 C                    -0.264631
     15 H                     0.150793
     16 H                     0.145605
     17 H                     0.132394
     18 H                     0.135593
     19 H                     0.141194
     20 H                     0.187357
     21 H                     0.195400
     22 H                     0.420788
     23 H                     0.141891
     24 H                     0.175354
     25 H                     0.152976
     26 H                     0.134791
  ----------------------------------------
  Sum of atomic charges =     0.000000

 -----------------------------------------------------------------
                    Cartesian Multipole Moments
 -----------------------------------------------------------------
    Charge (ESU x 10^10)
                 0.0000
    Dipole Moment (Debye)
         X       4.5295      Y       0.6651      Z      -1.3076
       Tot       4.7611
    Quadrupole Moments (Debye-Ang)
        XX     -94.6858     XY      -5.5335     YY     -73.1882
        XZ       5.5914     YZ       3.1212     ZZ     -84.5709
    Octopole Moments (Debye-Ang^2)
       XXX      91.7160    XXY      17.5015    XYY       0.1396
       YYY      -1.9535    XXZ      -3.2676    XYZ      -6.4539
       YYZ      -3.9308    XZZ     -12.7266    YZZ      -3.6146
       ZZZ       2.0733
    Hexadecapole Moments (Debye-Ang^3)
      XXXX   -3235.6453   XXXY     -73.7610   XXYY    -624.2711
      XYYY      -4.8678   YYYY    -838.6731   XXXZ      65.1432
      XXYZ      31.4723   XYYZ       4.3787   YYYZ       0.8158
      XXZZ    -578.4198   XYZZ       6.7375   YYZZ    -199.1270
      XZZZ      -5.0661   YZZZ      -4.0098   ZZZZ    -248.9659
 -----------------------------------------------------------------
Archival summary:
1\1\nia1977.scinet.local\SP\ProcedureUnspecified\6-31G*\21212\rhickman\MonFeb715:58:552022MonFeb715:58:552022\0\\#,ProcedureUnspecified,6-31G*,\\0,1\O\H,1,0.972306\C,1,1.33853,2,111.689\O,3,1.19659,1,121.423,2,-178.486,0\C,3,1.53009,1,115.66,2,3.00202,0\H,5,1.09034,3,107.725,1,-149.414,0\H,5,1.09471,3,105.679,1,95.5039,0\C,5,1.4996,3,113.596,1,-24.9976,0\C,8,1.39526,5,118.71,3,86.3843,0\H,9,1.08264,8,119.027,5,1.17153,0\C,9,1.37944,8,121.933,5,179.807,0\H,11,1.07817,9,119.352,8,-179.936,0\C,11,1.39548,9,120.222,8,-0.966158,0\C,13,1.39224,11,117.735,9,0.223661,0\H,14,1.08143,13,118.927,11,-179.631,0\C,14,1.39232,13,122.764,11,1.50294,0\C,13,1.45768,11,123.265,9,-179.235,0\H,17,1.08321,13,114.412,11,177.42,0\C,17,1.32745,13,126.641,11,-2.87118,0\H,19,1.07631,17,121.226,13,-179.884,0\H,19,1.07646,17,122.948,13,0.0102188,0\C,16,1.46635,14,117.313,13,178.559,0\H,22,1.08376,16,114.159,14,39.0743,0\C,22,1.3251,16,126.482,14,-137.094,0\H,24,1.07624,22,123.196,16,-0.479133,0\H,24,1.07682,22,121.047,16,177.895,0\\\@

 Total job time:  40.08s(wall), 39.95s(cpu) 
 Mon Feb  7 15:58:55 2022

        *************************************************************
        *                                                           *
        *  Thank you very much for using Q-Chem.  Have a nice day.  *
        *                                                           *
        *************************************************************


