
Running Job 1 of 1 tidas/B041/conf-0/spe_input.inp
qchem tidas/B041/conf-0/spe_input.inp_239614.0 /home/a/aspuru/seifridm/acdc_laser/descriptor_computation/qchem239614/ 0
/gpfs/fs1/scinet/niagara/software/commercial/qc54/exe/qcprog.exe_s tidas/B041/conf-0/spe_input.inp_239614.0 /home/a/aspuru/seifridm/acdc_laser/descriptor_computation/qchem239614/
                  Welcome to Q-Chem
     A Quantum Leap Into The Future Of Chemistry


 Q-Chem 5.4, Q-Chem, Inc., Pleasanton, CA (2021)

 License issued to: SRG Alan Aspuru-Guzik, University of Toronto

 E. Epifanovsky,  A. T. B. Gilbert,  Xintian Feng,  Joonho Lee,  Yuezhi Mao,  
 N. Mardirossian,  P. Pokhilko,  A. White,  M. Wormit,  M. P. Coons,  
 A. L. Dempwolff,  Zhengting Gan,  D. Hait,  P. R. Horn,  L. D. Jacobson,  
 I. Kaliman,  J. Kussmann,  A. W. Lange,  Ka Un Lao,  D. S. Levine,  Jie Liu,  
 S. C. McKenzie,  A. F. Morrison,  K. Nanda,  F. Plasser,  D. R. Rehn,  
 M. L. Vidal,  Zhi-Qiang You,  Ying Zhu,  B. Alam,  B. Albrecht,  
 A. Aldossary,  E. Alguire,  J. H. Andersen,  D. Barton,  K. Begam,  A. Behn,  
 Y. A. Bernard,  E. J. Berquist,  H. Burton,  A. Carreras,  K. Carter-Fenk,  
 Romit Chakraborty,  A. D. Chien,  K. D. Closser,  V. Cofer-Shabica,  
 S. Dasgupta,  Jia Deng,  M. de Wergifosse,  M. Diedenhofen,  Hainam Do,  
 S. Ehlert,  Po-Tung Fang,  S. Fatehi,  Qingguo Feng,  T. Friedhoff,  
 J. Gayvert,  Qinghui Ge,  G. Gidofalvi,  M. Goldey,  J. Gomes,  
 C. Gonzalez-Espinoza,  S. Gulania,  A. Gunina,  M. W. D. Hanson-Heine,  
 P. H. P. Harbach,  A. W. Hauser,  M. F. Herbst,  M. Hernandez Vera,  
 M. Hodecker,  Z. C. Holden,  S. Houck,  Xunkun Huang,  Kerwin Hui,  
 B. C. Huynh,  M. Ivanov,  Hyunjun Ji,  Hanjie Jiang,  B. Kaduk,  S. Kaehler,  
 K. Khistyaev,  Jaehoon Kim,  P. Klunzinger,  Z. Koczor-Benda,  
 Joong Hoon Koh,  D. Kosenkov,  L. Koulias,  T. Kowalczyk,  C. M. Krauter,  
 K. Kue,  A. Kunitsa,  T. Kus,  A. Landau,  K. V. Lawler,  D. Lefrancois,  
 S. Lehtola,  Rain Li,  Yi-Pei Li,  Jiashu Liang,  M. Liebenthal,  
 Hung-Hsuan Lin,  You-Sheng Lin,  Fenglai Liu,  Kuan-Yu Liu,  
 M. Loipersberger,  A. Luenser,  A. Manjanath,  P. Manohar,  E. Mansoor,  
 S. F. Manzer,  Shan-Ping Mao,  A. V. Marenich,  T. Markovich,  S. Mason,  
 S. A. Maurer,  P. F. McLaughlin,  M. F. S. J. Menger,  J.-M. Mewes,  
 S. A. Mewes,  P. Morgante,  J. W. Mullinax,  K. J. Oosterbaan,  G. Paran,  
 Alexander C. Paul,  Suranjan K. Paul,  F. Pavosevic,  Zheng Pei,  S. Prager,  
 E. I. Proynov,  E. Ramos,  B. Rana,  A. E. Rask,  A. Rettig,  R. M. Richard,  
 F. Rob,  E. Rossomme,  T. Scheele,  M. Scheurer,  M. Schneider,  
 N. Sergueev,  S. M. Sharada,  W. Skomorowski,  D. W. Small,  C. J. Stein,  
 Yu-Chuan Su,  E. J. Sundstrom,  Zhen Tao,  J. Thirman,  T. Tsuchimochi,  
 N. M. Tubman,  S. P. Veccham,  O. Vydrov,  J. Wenzel,  J. Witte,  A. Yamada,  
 Kun Yao,  S. Yeganeh,  S. R. Yost,  A. Zech,  Igor Ying Zhang,  Xing Zhang,  
 Yu Zhang,  D. Zuev,  A. Aspuru-Guzik,  A. T. Bell,  N. A. Besley,  
 K. B. Bravaya,  B. R. Brooks,  D. Casanova,  Jeng-Da Chai,  S. Coriani,  
 C. J. Cramer,  A. E. DePrince, III,  R. A. DiStasio Jr.,  A. Dreuw,  
 B. D. Dunietz,  T. R. Furlani,  W. A. Goddard III,  S. Grimme,  
 S. Hammes-Schiffer,  T. Head-Gordon,  W. J. Hehre,  Chao-Ping Hsu,  
 T.-C. Jagau,  Yousung Jung,  A. Klamt,  Jing Kong,  D. S. Lambrecht,  
 WanZhen Liang,  N. J. Mayhall,  C. W. McCurdy,  J. B. Neaton,  T. Neudecker,  
 C. Ochsenfeld,  J. A. Parkhill,  R. Peverati,  V. A. Rassolov,  Yihan Shao,  
 L. V. Slipchenko,  R. P. Steele,  J. E. Subotnik,  A. J. W. Thom,  
 A. Tkatchenko,  D. G. Truhlar,  T. Van Voorhis,  T. A. Wesolowski,  
 K. B. Whaley,  H. L. Woodcock III,  P. M. Zimmerman,  S. Faraji,  
 P. M. W. Gill,  M. Head-Gordon,  J. M. Herbert,  A. I. Krylov

 Additional authors since Version 5.4.0: 
 Chandrima Chakravarty,  L. Cunha,  R. Kang,  Yongbin Kim,  S. Kotaru,  
 Shaozhi Li,  Xiangyuan Li,  F. Matz,  A. Molle,  V. Parravicini,  
 Haisheng Ren,  Hengyuan Shen,  Yingli Su,  Hung-Yi Tsai,  C. Utku,  
 Fang Wang,  Jeff Yang,  F. Zeller

 Contributors to earlier versions of Q-Chem not listed above: 
 R. D. Adamson,  B. Austin,  R. Baer,  J. Baker,  G. J. O. Beran,  
 K. Brandhorst,  S. T. Brown,  E. F. C. Byrd,  Arup K. Chakraborty,  
 G. K. L. Chan,  Chun-Min Chang,  Yunqing Chen,  C.-L. Cheng,  
 Siu Hung Chien,  D. M. Chipman,  D. L. Crittenden,  H. Dachsel,  
 R. J. Doerksen,  A. D. Dutoi,  R. G. Edgar,  J. Fosso-Tande,  
 L. Fusti-Molnar,  D. Ghosh,  A. Ghysels,  A. Golubeva-Zadorozhnaya,  
 J. Gonthier,  M. S. Gordon,  S. R. Gwaltney,  G. Hawkins,  J. E. Herr,  
 A. Heyden,  S. Hirata,  E. G. Hohenstein,  G. Kedziora,  F. J. Keil,  
 C. Kelley,  Jihan Kim,  R. A. King,  R. Z. Khaliullin,  P. P. Korambath,  
 W. Kurlancheek,  A. Laurent,  A. M. Lee,  M. S. Lee,  S. V. Levchenko,  
 Ching Yeh Lin,  D. Liotard,  E. Livshits,  R. C. Lochan,  I. Lotan,  
 L. A. Martinez-Martinez,  P. E. Maslen,  N. Nair,  D. P. O'Neill,  
 D. Neuhauser,  E. Neuscamman,  C. M. Oana,  R. Olivares-Amaya,  R. Olson,  
 T. M. Perrine,  B. Peters,  P. A. Pieniazek,  A. Prociuk,  Y. M. Rhee,  
 J. Ritchie,  M. A. Rohrdanz,  E. Rosta,  N. J. Russ,  H. F. Schaefer III,  
 M. W. Schmidt,  N. E. Schultz,  S. Sharma,  N. Shenvi,  C. D. Sherrill,  
 A. C. Simmonett,  A. Sodt,  T. Stein,  D. Stuck,  K. S. Thanthiriwatte,  
 V. Vanovschi,  L. Vogt,  Tao Wang,  A. Warshel,  M. A. Watson,  
 C. F. Williams,  Q. Wu,  X. Xu,  Jun Yang,  W. Zhang,  Yan Zhao

   Please cite Q-Chem as follows:
  "Software for the frontiers of quantum chemistry:
   An overview of developments in the Q-Chem 5 package"
   J. Chem. Phys. 155, 084801 (2021)
   https://doi.org/10.1063/5.0055522 (open access)

 Q-Chem 5.4.2 for Intel X86 EM64T Linux

 Parts of Q-Chem use Armadillo 9.900.5 (Nocturnal Misbehaviour).
 http://arma.sourceforge.net/

 Q-Chem begins on Fri Aug 12 12:43:22 2022  

 Host: 
0

     Scratch files written to /home/a/aspuru/seifridm/acdc_laser/descriptor_computation/qchem239614//
 Dec1321 |scratch|qcdevops|jenkins|workspace|build_RNUM 6959   
 Processing $rem in /gpfs/fs1/scinet/niagara/software/commercial/qc54/config/preferences:
 Processing $rem in /home/a/aspuru/seifridm/.qchemrc:

 Checking the input file for inconsistencies... 	...done.

--------------------------------------------------------------
User input:
--------------------------------------------------------------
$molecule
0 1
C           -3.96295653990000       -1.49388537480000        0.00745467600000
C           -2.63601558800000       -1.51119457340000       -0.00412493640000
C           -1.81951547050000       -0.30212039110000       -0.00330983380000
C           -0.42606462670000       -0.39795490440000       -0.00435748760000
C            0.34115396780000        0.76475093960000       -0.00162732150000
C            1.79670903990000        0.78080053840000       -0.00036013190000
C            2.62544519650000       -0.25252486300000        0.00068072520000
F            2.32070475260000       -1.54238832380000        0.00005324970000
F            3.94870774870000       -0.12237440890000        0.00267391320000
C           -0.33992302180000        1.98549324460000        0.00062275070000
C           -1.72485836440000        1.97398885650000        0.00074435040000
N           -2.44833180940000        0.87368399600000       -0.00075710040000
H           -4.54584369210000       -2.39871245620000        0.00743353400000
H           -4.49381795730000       -0.55764461700000        0.01752742150000
H           -2.08842867060000       -2.44428756380000       -0.01377059860000
H            0.03456849190000       -1.37201409180000       -0.00669498880000
H            2.26760514220000        1.75331232910000        0.00066313890000
H            0.20223956380000        2.91828914650000        0.00245857410000
H           -2.28598271240000        2.89988264930000        0.00246953920000
$end

$rem
BASIS = 6-31G*
GUI = 2
METHOD = B3LYP
PRINT_ORBITALS false
MOLDEN_FORMAT false
$end
--------------------------------------------------------------
 ----------------------------------------------------------------
             Standard Nuclear Orientation (Angstroms)
    I     Atom           X                Y                Z
 ----------------------------------------------------------------
    1      C       3.9035177108     1.4029101872     0.0072169643
    2      C       2.5775299575     1.4561203503    -0.0042347681
    3      C       1.7286123053     0.2695826415    -0.0034797709
    4      C       0.3382648134     0.4030878446    -0.0043842984
    5      C      -0.4601344951    -0.7384322459    -0.0017136377
    6      C      -1.9155907574    -0.7150899647    -0.0003101603
    7      C      -2.7160623928     0.3402818733     0.0009269163
    8      F      -2.3765309113     1.6214270613     0.0004172990
    9      F      -4.0423619890     0.2459852663     0.0030308556
   10      C       0.1876609911    -1.9771572047     0.0003328997
   11      C       1.5724005205    -2.0031322807     0.0003243953
   12      N       2.3253822894    -0.9228067584    -0.0011204999
   13      H       4.5106753277     2.2916334892     0.0072434743
   14      H       4.4088517337     0.4526464014     0.0171328022
   15      H       2.0553914221     2.4036900503    -0.0137222938
   16      H      -0.0958425797     1.3892549909    -0.0065672525
   17      H      -2.4126297349    -1.6745036959     0.0006471301
   18      H      -0.3795436189    -2.8949412708     0.0021140242
   19      H       2.1082656072    -2.9438708100     0.0018909823
 ----------------------------------------------------------------
 Molecular Point Group                 C1    NOp =  1
 Largest Abelian Subgroup              C1    NOp =  1
 Nuclear Repulsion Energy =         637.56309562 hartrees
 There are       43 alpha and       43 beta electrons
 Requested basis set is 6-31G(d)
 There are 62 shells and 194 basis functions

 Total QAlloc Memory Limit   8000 MB
 Mega-Array Size       188 MB
 MEM_STATIC part       192 MB
 A cutoff of  1.0D-08 yielded   1344 shell pairs
 There are     13991 function pairs
 Smallest overlap matrix eigenvalue = 6.45E-04

 Scale SEOQF with 1.000000e-01/1.000000e-01/1.000000e+00

 Standard Electronic Orientation quadrupole field applied
 Nucleus-field energy     =     0.0000000289 hartrees
 Guess from superposition of atomic densities
 Warning:  Energy on first SCF cycle will be non-variational
 SAD guess density has 86.000000 electrons

 -----------------------------------------------------------------------
  General SCF calculation program by
  Eric Jon Sundstrom, Paul Horn, Yuezhi Mao, Dmitri Zuev, Alec White,
  David Stuck, Shaama M.S., Shane Yost, Joonho Lee, David Small,
  Daniel Levine, Susi Lehtola, Hugh Burton, Evgeny Epifanovsky,
  Bang C. Huynh
 -----------------------------------------------------------------------
 Exchange:     0.2000 Hartree-Fock + 0.0800 Slater + 0.7200 B88
 Correlation:  0.1900 VWN1RPA + 0.8100 LYP
 Using SG-1 standard quadrature grid
 A restricted SCF calculation will be
 performed using DIIS
 SCF converges when DIIS error is below 1.0e-05
 ---------------------------------------
  Cycle       Energy         DIIS error
 ---------------------------------------
    1    -604.2759728065      5.76e-02  
    2    -601.3544475362      6.42e-03  
    3    -601.1541646047      9.17e-03  
    4    -601.5425879222      1.64e-03  
    5    -601.5547204081      4.92e-04  
    6    -601.5555993908      2.35e-04  
    7    -601.5558454217      5.98e-05  
    8    -601.5558597546      2.49e-05  
    9    -601.5558631472      6.74e-06  Convergence criterion met
 ---------------------------------------
 SCF time:   CPU 37.14s  wall 51.00s 
 SCF   energy in the final basis set =     -601.5558631472
 Total energy in the final basis set =     -601.5558631472
 
 --------------------------------------------------------------
 
                    Orbital Energies (a.u.)
 --------------------------------------------------------------
 
 Alpha MOs
 -- Occupied --
-24.7568 -24.7464 -14.3213 -10.3716 -10.2257 -10.2241 -10.2206 -10.2144
-10.1969 -10.1948 -10.1853 -10.1778  -1.2987  -1.2372  -0.9490  -0.8452
 -0.7987  -0.7764  -0.7382  -0.6662  -0.6394  -0.6299  -0.5889  -0.5708
 -0.5316  -0.5276  -0.5127  -0.4885  -0.4662  -0.4527  -0.4442  -0.4402
 -0.4363  -0.4208  -0.4103  -0.3992  -0.3784  -0.3510  -0.3356  -0.2982
 -0.2524  -0.2462  -0.2323
 -- Virtual --
 -0.0507  -0.0271   0.0351   0.0809   0.0814   0.1143   0.1328   0.1443
  0.1544   0.1656   0.1759   0.1814   0.1938   0.2137   0.2551   0.2884
  0.3038   0.3188   0.3643   0.3740   0.3995   0.4140   0.4695   0.4812
  0.4869   0.5125   0.5239   0.5242   0.5461   0.5471   0.5688   0.5860
  0.5876   0.5914   0.5937   0.6017   0.6229   0.6565   0.6602   0.6651
  0.6961   0.7047   0.7054   0.7569   0.7700   0.8139   0.8243   0.8388
  0.8615   0.8646   0.8769   0.8882   0.8945   0.9239   0.9406   0.9589
  1.0093   1.0210   1.0382   1.0493   1.1008   1.1122   1.1306   1.1493
  1.1637   1.2052   1.2210   1.2480   1.2511   1.2663   1.2893   1.3121
  1.3333   1.3342   1.3919   1.4069   1.4445   1.4509   1.4563   1.4805
  1.4813   1.5026   1.5184   1.5231   1.6220   1.6588   1.6819   1.7017
  1.7144   1.7710   1.7722   1.7814   1.8257   1.8313   1.8469   1.8727
  1.8885   1.9281   1.9558   1.9603   1.9745   2.0031   2.0035   2.0246
  2.0446   2.0589   2.1227   2.1388   2.1612   2.1863   2.2170   2.2410
  2.2639   2.2737   2.3122   2.3306   2.3559   2.3631   2.4021   2.5025
  2.5120   2.5347   2.5356   2.6331   2.6365   2.6708   2.6897   2.7126
  2.7271   2.8073   2.8194   2.8903   2.9225   2.9604   3.0466   3.1135
  3.1927   3.3002   3.4715   4.0446   4.0801   4.1094   4.1346   4.1705
  4.2504   4.2830   4.3788   4.4657   4.6654   4.7938   5.2859
 --------------------------------------------------------------
 
          Ground-State Mulliken Net Atomic Charges

     Atom                 Charge (a.u.)
  ----------------------------------------
      1 C                    -0.332356
      2 C                    -0.105419
      3 C                     0.319853
      4 C                    -0.251430
      5 C                     0.216957
      6 C                    -0.298650
      7 C                     0.558578
      8 F                    -0.228638
      9 F                    -0.241808
     10 C                    -0.210532
     11 C                     0.042174
     12 N                    -0.486350
     13 H                     0.141538
     14 H                     0.171838
     15 H                     0.125515
     16 H                     0.141921
     17 H                     0.165468
     18 H                     0.133349
     19 H                     0.137991
  ----------------------------------------
  Sum of atomic charges =     0.000000

 -----------------------------------------------------------------
                    Cartesian Multipole Moments
 -----------------------------------------------------------------
    Charge (ESU x 10^10)
                 0.0000
    Dipole Moment (Debye)
         X      -1.3501      Y      -0.4518      Z       0.0021
       Tot       1.4238
    Quadrupole Moments (Debye-Ang)
        XX     -70.1667     XY       4.1882     YY     -59.8288
        XZ       0.0318     YZ      -0.0262     ZZ     -69.1819
    Octopole Moments (Debye-Ang^2)
       XXX     -36.5284    XXY       8.9194    XYY     -10.2584
       YYY       3.0065    XXZ       0.1757    XYZ      -0.0196
       YYZ      -0.0147    XZZ     -21.8108    YZZ       5.5890
       ZZZ       0.0340
    Hexadecapole Moments (Debye-Ang^3)
      XXXX   -2306.6057   XXXY      17.3559   XXYY    -469.1960
      XYYY     -30.7170   YYYY    -653.3405   XXXZ       0.8480
      XXYZ      -0.0008   XYYZ      -0.0787   YYYZ      -0.1725
      XXZZ    -407.3513   XYZZ     -21.8774   YYZZ    -138.7937
      XZZZ      -0.1385   YZZZ      -0.0032   ZZZZ     -65.1519
 -----------------------------------------------------------------
 Total job time:  53.62s(wall), 37.55s(cpu) 
 Fri Aug 12 12:44:16 2022

        *************************************************************
        *                                                           *
        *  Thank you very much for using Q-Chem.  Have a nice day.  *
        *                                                           *
        *************************************************************


