
Running Job 1 of 1 fragments/A001/conf-0/spe_input.inp
qchem fragments/A001/conf-0/spe_input.inp_114281.0 /gpfs/fs0/scratch/a/aspuru/rhickman/descriptor_computation/qchem114281/ 0
/scinet/niagara/software/commercial/qc52/exe/qcprog.exe_s fragments/A001/conf-0/spe_input.inp_114281.0 /gpfs/fs0/scratch/a/aspuru/rhickman/descriptor_computation/qchem114281/
                  Welcome to Q-Chem
     A Quantum Leap Into The Future Of Chemistry


 Q-Chem 5.2, Q-Chem, Inc., Pleasanton, CA (2019)

 License issued to: SRG Alan Aspuru-Guzik, University of Toronto

 Yihan Shao,  Zhengting Gan,  E. Epifanovsky,  A. T. B. Gilbert,  M. Wormit,  
 J. Kussmann,  A. W. Lange,  A. Behn,  Jia Deng,  Xintian Feng,  D. Ghosh,  
 M. Goldey,  P. R. Horn,  L. D. Jacobson,  I. Kaliman,  T. Kus,  A. Landau,  
 Jie Liu,  E. I. Proynov,  R. M. Richard,  R. P. Steele,  E. J. Sundstrom,  
 H. L. Woodcock III,  P. M. Zimmerman,  D. Zuev,  B. Albrecht,  E. Alguire,  
 S. A. Baeppler,  D. Barton,  Z. Benda,  Y. A. Bernard,  E. J. Berquist,  
 K. B. Bravaya,  H. Burton,  D. Casanova,  Chun-Min Chang,  Yunqing Chen,  
 A. Chien,  K. D. Closser,  M. P. Coons,  S. Coriani,  S. Dasgupta,  
 A. L. Dempwolff,  M. Diedenhofen,  Hainam Do,  R. G. Edgar,  Po-Tung Fang,  
 S. Faraji,  S. Fatehi,  Qingguo Feng,  K. D. Fenk,  J. Fosso-Tande,  
 J. Gayvert,  Qinghui Ge,  A. Ghysels,  G. Gidofalvi,  J. Gomes,  
 J. Gonthier,  A. Gunina,  D. Hait,  M. W. D. Hanson-Heine,  
 P. H. P. Harbach,  A. W. Hauser,  M. F. Herbst,  J. E. Herr,  
 E. G. Hohenstein,  Z. C. Holden,  Kerwin Hui,  B. C. Huynh,  T.-C. Jagau,  
 Hyunjun Ji,  B. Kaduk,  K. Khistyaev,  Jaehoon Kim,  P. Klunzinger,  K. Koh,  
 D. Kosenkov,  L. Koulias,  T. Kowalczyk,  C. M. Krauter,  A. Kunitsa,  
 Ka Un Lao,  A. Laurent,  K. V. Lawler,  Joonho Lee,  D. Lefrancois,  
 S. Lehtola,  D. S. Levine,  Yi-Pei Li,  You-Sheng Lin,  Fenglai Liu,  
 E. Livshits,  A. Luenser,  P. Manohar,  E. Mansoor,  S. F. Manzer,  
 Shan-Ping Mao,  Yuezhi Mao,  N. Mardirossian,  A. V. Marenich,  
 T. Markovich,  L. A. Martinez-Martinez,  S. A. Maurer,  N. J. Mayhall,  
 S. C. McKenzie,  J.-M. Mewes,  P. Morgante,  A. F. Morrison,  
 J. W. Mullinax,  K. Nanda,  T. S. Nguyen-Beck,  R. Olivares-Amaya,  
 J. A. Parkhill,  Zheng Pei,  T. M. Perrine,  F. Plasser,  P. Pokhilko,  
 S. Prager,  A. Prociuk,  E. Ramos,  D. R. Rehn,  F. Rob,  M. Scheurer,  
 M. Schneider,  N. Sergueev,  S. M. Sharada,  S. Sharma,  D. W. Small,  
 T. Stauch,  T. Stein,  Yu-Chuan Su,  A. J. W. Thom,  A. Tkatchenko,  
 T. Tsuchimochi,  N. M. Tubman,  L. Vogt,  M. L. Vidal,  O. Vydrov,  
 M. A. Watson,  J. Wenzel,  M. de Wergifosse,  T. A. Wesolowski,  A. White,  
 J. Witte,  A. Yamada,  Jun Yang,  K. Yao,  S. Yeganeh,  S. R. Yost,  
 Zhi-Qiang You,  A. Zech,  Igor Ying Zhang,  Xing Zhang,  Yan Zhao,  
 Ying Zhu,  B. R. Brooks,  G. K. L. Chan,  C. J. Cramer,  M. S. Gordon,  
 W. J. Hehre,  A. Klamt,  M. W. Schmidt,  C. D. Sherrill,  D. G. Truhlar,  
 A. Aspuru-Guzik,  R. Baer,  A. T. Bell,  N. A. Besley,  Jeng-Da Chai,  
 A. E. DePrince, III,  R. A. DiStasio Jr.,  A. Dreuw,  B. D. Dunietz,  
 T. R. Furlani,  Chao-Ping Hsu,  Yousung Jung,  Jing Kong,  D. S. Lambrecht,  
 WanZhen Liang,  C. Ochsenfeld,  V. A. Rassolov,  L. V. Slipchenko,  
 J. E. Subotnik,  T. Van Voorhis,  J. M. Herbert,  A. I. Krylov,  
 P. M. W. Gill,  M. Head-Gordon

 Contributors to earlier versions of Q-Chem not listed above: 
 R. D. Adamson,  B. Austin,  J. Baker,  G. J. O. Beran,  K. Brandhorst,  
 S. T. Brown,  E. F. C. Byrd,  A. K. Chakraborty,  C.-L. Cheng,  
 Siu Hung Chien,  D. M. Chipman,  D. L. Crittenden,  H. Dachsel,  
 R. J. Doerksen,  A. D. Dutoi,  L. Fusti-Molnar,  W. A. Goddard III,  
 A. Golubeva-Zadorozhnaya,  S. R. Gwaltney,  G. Hawkins,  A. Heyden,  
 S. Hirata,  G. Kedziora,  F. J. Keil,  C. Kelley,  Jihan Kim,  R. A. King,  
 R. Z. Khaliullin,  P. P. Korambath,  W. Kurlancheek,  A. M. Lee,  M. S. Lee,  
 S. V. Levchenko,  Ching Yeh Lin,  D. Liotard,  R. C. Lochan,  I. Lotan,  
 P. E. Maslen,  N. Nair,  D. P. O'Neill,  D. Neuhauser,  E. Neuscamman,  
 C. M. Oana,  R. Olson,  B. Peters,  R. Peverati,  P. A. Pieniazek,  
 Y. M. Rhee,  J. Ritchie,  M. A. Rohrdanz,  E. Rosta,  N. J. Russ,  
 H. F. Schaefer III,  N. E. Schultz,  N. Shenvi,  A. C. Simmonett,  A. Sodt,  
 D. Stuck,  K. S. Thanthiriwatte,  V. Vanovschi,  Tao Wang,  A. Warshel,  
 C. F. Williams,  Q. Wu,  X. Xu,  W. Zhang

 Please cite Q-Chem as follows:
 Y. Shao et al., Mol. Phys. 113, 184-215 (2015)
 DOI: 10.1080/00268976.2014.952696

 Q-Chem 5.2.1 for Intel X86 EM64T Linux

 Parts of Q-Chem use Armadillo 8.300.2 (Tropical Shenanigans).
 http://arma.sourceforge.net/

 Q-Chem begins on Mon Feb  7 15:40:43 2022  

Host: 
0

     Scratch files written to /gpfs/fs0/scratch/a/aspuru/rhickman/descriptor_computation/qchem114281//
 Jul1719 |scratch|qcdevops|jenkins|workspace|build_RNUM -1
Processing $rem in /scinet/niagara/software/commercial/qc52/config/preferences:
	 MEM_TOTAL  4000 
NAlpha2: 158
NElect   158
Mult     1

Checking the input file for inconsistencies... 	...done.

--------------------------------------------------------------
User input:
--------------------------------------------------------------
$molecule
0 1
F        -6.69975674870000    0.22589107780000   -0.09334006480000
C        -5.41134247300000   -0.02855911390000    0.12968992390000
F        -5.31531434100000   -0.98334815970000    1.04749449820000
C        -4.43037149010000    0.60467984600000   -0.49746178750000
C        -2.99661782860000    0.42472238740000   -0.34989004540000
C        -2.41862117360000   -0.48724403350000    0.53665345170000
C        -1.04800524010000   -0.60644809590000    0.63039926220000
C        -0.21192731820000    0.17654460590000   -0.16382118790000
N         1.17590822740000    0.05068280710000   -0.06975657920000
C         1.88515656830000   -1.13640696180000   -0.09778705770000
C         3.26582861220000   -0.85786352960000    0.01864083050000
C         4.18920564520000   -1.89456410190000   -0.00475939580000
C         3.72830048950000   -3.18739501970000   -0.15299663250000
C         2.36775832350000   -3.45018714580000   -0.29404698170000
C         1.43013947320000   -2.43506909860000   -0.27396785390000
C         2.07613494700000    1.09168923520000    0.06626872750000
C         3.38780539040000    0.56916067230000    0.12958677020000
C         4.47046190740000    1.42404557900000    0.28726102670000
C         4.23299527230000    2.78017960600000    0.38934006130000
C         2.93496042310000    3.28391540300000    0.35314464730000
C         1.84184004070000    2.45280177880000    0.19703218070000
C        -0.77961114660000    1.08712123440000   -1.05347685220000
C        -2.14965653560000    1.20831423400000   -1.13872629210000
H        -4.75107697940000    1.34980106920000   -1.21118308170000
H        -3.03887501350000   -1.10280837890000    1.16691633120000
H        -0.61366408930000   -1.29738469220000    1.33689883540000
H         5.24481907960000   -1.68788654570000    0.08635871670000
H         4.42906331120000   -4.00868082840000   -0.17087279870000
H         2.03749671110000   -4.46990562420000   -0.42609420630000
H         0.38026493530000   -2.64961110280000   -0.40469571960000
H         5.47467117780000    1.03070665260000    0.33387644790000
H         5.06084425740000    3.46287321150000    0.50984356940000
H         2.77809935060000    4.34774472800000    0.45363873220000
H         0.83925093930000    2.85312409440000    0.19177095930000
H        -0.13987034850000    1.68221153990000   -1.68738362200000
H        -2.57718425720000    1.91466969090000   -1.83515469220000
$end

$rem
BASIS = 6-31G*
GUI = 2
METHOD = B3LYP
PRINT_ORBITALS false
MOLDEN_FORMAT false
--------------------------------------------------------------
 ----------------------------------------------------------------
             Standard Nuclear Orientation (Angstroms)
    I     Atom           X                Y                Z
 ----------------------------------------------------------------
    1      F       6.7856334702    -0.1951681702    -0.0566268658
    2      C       5.4954123069     0.0551399303     0.1605684984
    3      F       5.3921976600     1.0113420306     1.0761191746
    4      C       4.5192996958    -0.5827753878    -0.4694181175
    5      C       3.0843181008    -0.4076195152    -0.3281385712
    6      C       2.4994233692     0.5039915180     0.5542364824
    7      C       1.1280169429     0.6185150477     0.6420698344
    8      C       0.2980185983    -0.1689596896    -0.1540936362
    9      N      -1.0906320590    -0.0478389172    -0.0660257359
   10      C      -1.8039527695     1.1366728028    -0.0992911147
   11      C      -3.1841023056     0.8534599438     0.0119515221
   12      C      -4.1110357491     1.8868333903    -0.0172803725
   13      C      -3.6540953682     3.1810034535    -0.1661056345
   14      C      -2.2939174669     3.4483465139    -0.3020234514
   15      C      -1.3528049773     2.4365995377    -0.2760953248
   16      C      -1.9877275904    -1.0917675688     0.0682798562
   17      C      -3.3014898255    -0.5737722186     0.1251501682
   18      C      -4.3817607186    -1.4321861142     0.2799884391
   19      C      -4.1399241314    -2.7872713014     0.3856730249
   20      C      -2.8399763702    -3.2864703343     0.3558322010
   21      C      -1.7491641613    -2.4517874317     0.2026450412
   22      C       0.8726086611    -1.0792234777    -1.0396262569
   23      C       2.2434163131    -1.1957216467    -1.1189618460
   24      H       4.8455993814    -1.3281231468    -1.1803618335
   25      H       3.1148738098     1.1229594275     1.1858732994
   26      H       0.6883049446     1.3092618709     1.3454256812
   27      H      -5.1662806568     1.6765897357     0.0698610995
   28      H      -4.3576788229     3.9997637573    -0.1884742802
   29      H      -1.9667197747     4.4689742346    -0.4346722480
   30      H      -0.3031622551     2.6546112178    -0.4028851300
   31      H      -5.3875400064    -1.0423213120     0.3216804936
   32      H      -4.9658460840    -3.4726632164     0.5040641039
   33      H      -2.6797715851    -4.3495420202     0.4590325269
   34      H      -0.7451520031    -2.8485619514     0.2023135425
   35      H       0.2376142540    -1.6777935966    -1.6750272870
   36      H       2.6763277152    -1.9018920352    -1.8122450500
 ----------------------------------------------------------------
 Molecular Point Group                 C1    NOp =  1
 Largest Abelian Subgroup              C1    NOp =  1
 Nuclear Repulsion Energy =        1722.55284797 hartrees
 There are       79 alpha and       79 beta electrons
 Requested basis set is 6-31G(d)
 There are 118 shells and 371 basis functions

 Total QAlloc Memory Limit   4000 MB
 Mega-Array Size       188 MB
 MEM_STATIC part       192 MB
 A cutoff of  1.0D-08 yielded   3483 shell pairs
 There are     37093 function pairs
 Smallest overlap matrix eigenvalue = 2.67E-04

 Scale SEOQF with 1.000000e-02/1.000000e-01/1.000000e-01

 Standard Electronic Orientation quadrupole field applied
 Nucleus-field energy     =     0.0000000377 hartrees
 Guess from superposition of atomic densities
 Warning:  Energy on first SCF cycle will be non-variational
 SAD guess density has 158.000000 electrons

 -----------------------------------------------------------------------
  General SCF calculation program by
  Eric Jon Sundstrom, Paul Horn, Yuezhi Mao, Dmitri Zuev, Alec White,
  David Stuck, Shaama M.S., Shane Yost, Joonho Lee, David Small,
  Daniel Levine, Susi Lehtola, Hugh Burton, Evgeny Epifanovsky,
  Bang C. Huynh
 -----------------------------------------------------------------------
 Exchange:     0.2000 Hartree-Fock + 0.0800 Slater + 0.7200 B88
 Correlation:  0.1900 VWN1RPA + 0.8100 LYP
 Using SG-1 standard quadrature grid
 A restricted SCF calculation will be
 performed using DIIS
 SCF converges when DIIS error is below 1.0e-05
 ---------------------------------------
  Cycle       Energy         DIIS error
 ---------------------------------------
    1   -1030.5216389492      4.33e-02  
    2   -1024.0588058960      4.23e-03  
    3   -1023.8357430204      5.62e-03  
    4   -1024.3490127955      1.42e-03  
    5   -1024.3819240383      4.87e-04  
    6   -1024.3856504886      2.30e-04  
    7   -1024.3865992358      4.66e-05  
    8   -1024.3866277438      2.32e-05  
    9   -1024.3866373266      4.19e-06  Convergence criterion met
 ---------------------------------------
 SCF time:   CPU 103.25s  wall 104.00s 
 SCF   energy in the final basis set =    -1024.3866373266
 Total energy in the final basis set =    -1024.3866373266
 
 --------------------------------------------------------------
 
                    Orbital Energies (a.u.)
 --------------------------------------------------------------
 
 Alpha MOs
 -- Occupied --
-24.7495 -24.7386 -14.3834 -10.3619 -10.2382 -10.2208 -10.2207 -10.2135
-10.2085 -10.2010 -10.1993 -10.1990 -10.1981 -10.1848 -10.1847 -10.1845
-10.1844 -10.1838 -10.1834 -10.1834 -10.1832 -10.1776 -10.1774  -1.2902
 -1.2292  -1.0023  -0.8822  -0.8521  -0.8480  -0.8141  -0.7830  -0.7659
 -0.7526  -0.7507  -0.7173  -0.7170  -0.6613  -0.6368  -0.6328  -0.6172
 -0.6041  -0.5838  -0.5773  -0.5742  -0.5451  -0.5357  -0.5237  -0.5183
 -0.5061  -0.4874  -0.4685  -0.4624  -0.4545  -0.4529  -0.4455  -0.4424
 -0.4385  -0.4348  -0.4336  -0.4215  -0.4181  -0.4159  -0.4126  -0.3879
 -0.3845  -0.3655  -0.3622  -0.3584  -0.3537  -0.3399  -0.3341  -0.3325
 -0.3024  -0.2793  -0.2667  -0.2521  -0.2348  -0.2121  -0.1950
 -- Virtual --
 -0.0379  -0.0243  -0.0124   0.0096   0.0306   0.0474   0.0621   0.0803
  0.1019   0.1076   0.1145   0.1327   0.1359   0.1506   0.1557   0.1599
  0.1627   0.1701   0.1754   0.1845   0.1903   0.1911   0.2015   0.2052
  0.2133   0.2145   0.2404   0.2661   0.2702   0.2760   0.2823   0.3028
  0.3086   0.3173   0.3202   0.3423   0.3495   0.3673   0.3946   0.3964
  0.4074   0.4086   0.4409   0.4685   0.4750   0.4921   0.4965   0.5106
  0.5223   0.5274   0.5305   0.5325   0.5378   0.5450   0.5499   0.5570
  0.5620   0.5701   0.5713   0.5757   0.5788   0.5815   0.5858   0.5875
  0.5902   0.5939   0.5999   0.6053   0.6114   0.6184   0.6210   0.6230
  0.6245   0.6335   0.6366   0.6400   0.6471   0.6482   0.6556   0.6601
  0.6936   0.7090   0.7144   0.7245   0.7484   0.7704   0.7892   0.7918
  0.8018   0.8138   0.8221   0.8308   0.8350   0.8422   0.8484   0.8489
  0.8508   0.8623   0.8632   0.8727   0.8791   0.8881   0.9023   0.9101
  0.9183   0.9265   0.9466   0.9500   0.9623   0.9795   0.9885   1.0028
  1.0034   1.0056   1.0130   1.0323   1.0417   1.0696   1.0722   1.1053
  1.1103   1.1305   1.1394   1.1556   1.1583   1.1595   1.1711   1.1793
  1.2010   1.2039   1.2148   1.2213   1.2256   1.2334   1.2492   1.2684
  1.2814   1.3030   1.3267   1.3352   1.3379   1.3514   1.3689   1.3949
  1.3981   1.4064   1.4208   1.4363   1.4408   1.4474   1.4537   1.4551
  1.4604   1.4746   1.4752   1.4824   1.4882   1.5000   1.5051   1.5077
  1.5088   1.5523   1.6013   1.6224   1.6291   1.6353   1.6827   1.7124
  1.7254   1.7609   1.7646   1.7769   1.7779   1.7865   1.7924   1.8118
  1.8213   1.8319   1.8340   1.8534   1.8665   1.8735   1.8789   1.8986
  1.9030   1.9263   1.9312   1.9371   1.9398   1.9669   1.9682   1.9805
  1.9864   1.9945   2.0022   2.0101   2.0220   2.0311   2.0426   2.0672
  2.0732   2.0830   2.1094   2.1232   2.1360   2.1445   2.1488   2.1510
  2.1553   2.1736   2.2064   2.2165   2.2271   2.2337   2.2410   2.2447
  2.2685   2.2842   2.2880   2.2975   2.2986   2.3153   2.3170   2.3488
  2.3637   2.3802   2.4020   2.4237   2.4756   2.4856   2.5145   2.5226
  2.5522   2.5574   2.5823   2.6073   2.6171   2.6363   2.6516   2.6627
  2.6699   2.6801   2.6865   2.6964   2.7006   2.7152   2.7290   2.7491
  2.7655   2.7793   2.8032   2.8332   2.8576   2.8715   2.8819   2.9083
  2.9119   2.9494   2.9771   3.0063   3.0527   3.1389   3.1806   3.2602
  3.3033   3.3723   3.4020   3.4926   3.5668   4.0711   4.0967   4.1056
  4.1101   4.1105   4.1255   4.1532   4.1626   4.1742   4.1953   4.2831
  4.3019   4.3419   4.3726   4.4286   4.4518   4.4743   4.5212   4.7116
  4.7687   4.8240   4.8719   5.2857
 --------------------------------------------------------------
 
          Ground-State Mulliken Net Atomic Charges

     Atom                 Charge (a.u.)
  ----------------------------------------
      1 F                    -0.246828
      2 C                     0.545153
      3 F                    -0.234049
      4 C                    -0.299962
      5 C                     0.204652
      6 C                    -0.208831
      7 C                    -0.161083
      8 C                     0.290062
      9 N                    -0.734430
     10 C                     0.311860
     11 C                     0.060413
     12 C                    -0.194836
     13 C                    -0.145160
     14 C                    -0.138940
     15 C                    -0.176854
     16 C                     0.312189
     17 C                     0.059889
     18 C                    -0.195024
     19 C                    -0.144998
     20 C                    -0.138932
     21 C                    -0.176998
     22 C                    -0.160906
     23 C                    -0.208887
     24 H                     0.161369
     25 H                     0.145557
     26 H                     0.155048
     27 H                     0.129018
     28 H                     0.122069
     29 H                     0.125396
     30 H                     0.139423
     31 H                     0.129088
     32 H                     0.122003
     33 H                     0.125036
     34 H                     0.138692
     35 H                     0.154576
     36 H                     0.135229
  ----------------------------------------
  Sum of atomic charges =     0.000000

 -----------------------------------------------------------------
                    Cartesian Multipole Moments
 -----------------------------------------------------------------
    Charge (ESU x 10^10)
                 0.0000
    Dipole Moment (Debye)
         X       0.5557      Y      -0.5529      Z      -0.5300
       Tot       0.9462
    Quadrupole Moments (Debye-Ang)
        XX    -127.1876     XY      -2.3825     YY    -120.1399
        XZ      -3.0059     YZ       2.6718     ZZ    -131.0048
    Octopole Moments (Debye-Ang^2)
       XXX       1.6892    XXY      -7.2152    XYY      22.7914
       YYY       6.8810    XXZ      -3.6146    XYZ       9.8756
       YYZ      -1.2285    XZZ      51.9061    YZZ      -2.0182
       ZZZ       6.6151
    Hexadecapole Moments (Debye-Ang^3)
      XXXX   -8775.0015   XXXY     -23.8257   XXYY   -1793.9562
      XYYY      31.9843   YYYY   -2385.2837   XXXZ     -42.4023
      XXYZ       9.5876   XYYZ      -4.1961   YYYZ     -10.7541
      XXZZ   -1553.5008   XYZZ       1.7023   YYZZ    -510.3148
      XZZZ      47.5627   YZZZ      31.7523   ZZZZ    -338.2254
 -----------------------------------------------------------------
Archival summary:
1\1\nia1977.scinet.local\SP\ProcedureUnspecified\6-31G*\212013\rhickman\MonFeb715:42:272022MonFeb715:42:272022\0\\#,ProcedureUnspecified,6-31G*,\\0,1\N\C,1,1.38297\C,1,1.38311,2,108.315\C,3,1.3873,1,129.63,2,-177.043,0\H,4,1.07952,3,121.359,1,-0.83607,0\C,4,1.38203,3,117.834,1,178.366,0\H,6,1.07997,4,119.199,3,179.769,0\C,2,1.38731,1,129.632,3,-176.998,0\H,8,1.07957,2,121.346,1,-0.776617,0\C,8,1.38204,2,117.845,1,178.367,0\H,10,1.08002,8,119.208,2,179.799,0\C,10,1.39282,8,121.504,2,-0.472016,0\H,12,1.07978,10,119.258,8,179.815,0\C,12,1.38055,10,120.907,8,-0.85469,0\H,14,1.0795,12,120.98,10,-178.835,0\C,14,1.38846,12,118.626,10,0.833754,0\C,6,1.39285,4,121.51,3,-0.476935,0\H,17,1.07977,6,119.259,4,179.803,0\C,17,1.38051,6,120.909,4,-0.843069,0\H,19,1.07951,17,120.986,6,-178.86,0\C,19,1.3885,17,118.62,6,0.827733,0\C,1,1.3967,2,125.845,3,-179.953,0\C,22,1.39388,1,120.466,2,-131.213,0\H,23,1.07944,22,119.416,1,1.36475,0\C,23,1.37898,22,120.59,1,-179.798,0\H,25,1.07743,23,118.884,22,-179.718,0\C,22,1.39388,1,120.433,2,48.788,0\H,27,1.07946,22,119.576,1,1.30821,0\C,27,1.37803,22,120.122,1,-179.844,0\H,29,1.08015,27,119.4,22,-179.742,0\C,25,1.39704,23,120.716,22,-0.350156,0\C,31,1.45252,25,123.623,23,-179.837,0\H,32,1.08049,31,116.457,25,179.419,0\C,32,1.32537,31,128.559,25,-0.673423,0\F,34,1.32786,32,128.104,31,0.0154002,0\F,34,1.3321,32,123.051,31,-179.958,0\\\@

 Total job time:  103.89s(wall), 103.61s(cpu) 
 Mon Feb  7 15:42:27 2022

        *************************************************************
        *                                                           *
        *  Thank you very much for using Q-Chem.  Have a nice day.  *
        *                                                           *
        *************************************************************


