
Running Job 1 of 1 fragments/A016/conf-0/spe_input.inp
qchem fragments/A016/conf-0/spe_input.inp_44721.0 /gpfs/fs0/scratch/a/aspuru/rhickman/descriptor_computation/qchem44721/ 0
/scinet/niagara/software/commercial/qc52/exe/qcprog.exe_s fragments/A016/conf-0/spe_input.inp_44721.0 /gpfs/fs0/scratch/a/aspuru/rhickman/descriptor_computation/qchem44721/
                  Welcome to Q-Chem
     A Quantum Leap Into The Future Of Chemistry


 Q-Chem 5.2, Q-Chem, Inc., Pleasanton, CA (2019)

 License issued to: SRG Alan Aspuru-Guzik, University of Toronto

 Yihan Shao,  Zhengting Gan,  E. Epifanovsky,  A. T. B. Gilbert,  M. Wormit,  
 J. Kussmann,  A. W. Lange,  A. Behn,  Jia Deng,  Xintian Feng,  D. Ghosh,  
 M. Goldey,  P. R. Horn,  L. D. Jacobson,  I. Kaliman,  T. Kus,  A. Landau,  
 Jie Liu,  E. I. Proynov,  R. M. Richard,  R. P. Steele,  E. J. Sundstrom,  
 H. L. Woodcock III,  P. M. Zimmerman,  D. Zuev,  B. Albrecht,  E. Alguire,  
 S. A. Baeppler,  D. Barton,  Z. Benda,  Y. A. Bernard,  E. J. Berquist,  
 K. B. Bravaya,  H. Burton,  D. Casanova,  Chun-Min Chang,  Yunqing Chen,  
 A. Chien,  K. D. Closser,  M. P. Coons,  S. Coriani,  S. Dasgupta,  
 A. L. Dempwolff,  M. Diedenhofen,  Hainam Do,  R. G. Edgar,  Po-Tung Fang,  
 S. Faraji,  S. Fatehi,  Qingguo Feng,  K. D. Fenk,  J. Fosso-Tande,  
 J. Gayvert,  Qinghui Ge,  A. Ghysels,  G. Gidofalvi,  J. Gomes,  
 J. Gonthier,  A. Gunina,  D. Hait,  M. W. D. Hanson-Heine,  
 P. H. P. Harbach,  A. W. Hauser,  M. F. Herbst,  J. E. Herr,  
 E. G. Hohenstein,  Z. C. Holden,  Kerwin Hui,  B. C. Huynh,  T.-C. Jagau,  
 Hyunjun Ji,  B. Kaduk,  K. Khistyaev,  Jaehoon Kim,  P. Klunzinger,  K. Koh,  
 D. Kosenkov,  L. Koulias,  T. Kowalczyk,  C. M. Krauter,  A. Kunitsa,  
 Ka Un Lao,  A. Laurent,  K. V. Lawler,  Joonho Lee,  D. Lefrancois,  
 S. Lehtola,  D. S. Levine,  Yi-Pei Li,  You-Sheng Lin,  Fenglai Liu,  
 E. Livshits,  A. Luenser,  P. Manohar,  E. Mansoor,  S. F. Manzer,  
 Shan-Ping Mao,  Yuezhi Mao,  N. Mardirossian,  A. V. Marenich,  
 T. Markovich,  L. A. Martinez-Martinez,  S. A. Maurer,  N. J. Mayhall,  
 S. C. McKenzie,  J.-M. Mewes,  P. Morgante,  A. F. Morrison,  
 J. W. Mullinax,  K. Nanda,  T. S. Nguyen-Beck,  R. Olivares-Amaya,  
 J. A. Parkhill,  Zheng Pei,  T. M. Perrine,  F. Plasser,  P. Pokhilko,  
 S. Prager,  A. Prociuk,  E. Ramos,  D. R. Rehn,  F. Rob,  M. Scheurer,  
 M. Schneider,  N. Sergueev,  S. M. Sharada,  S. Sharma,  D. W. Small,  
 T. Stauch,  T. Stein,  Yu-Chuan Su,  A. J. W. Thom,  A. Tkatchenko,  
 T. Tsuchimochi,  N. M. Tubman,  L. Vogt,  M. L. Vidal,  O. Vydrov,  
 M. A. Watson,  J. Wenzel,  M. de Wergifosse,  T. A. Wesolowski,  A. White,  
 J. Witte,  A. Yamada,  Jun Yang,  K. Yao,  S. Yeganeh,  S. R. Yost,  
 Zhi-Qiang You,  A. Zech,  Igor Ying Zhang,  Xing Zhang,  Yan Zhao,  
 Ying Zhu,  B. R. Brooks,  G. K. L. Chan,  C. J. Cramer,  M. S. Gordon,  
 W. J. Hehre,  A. Klamt,  M. W. Schmidt,  C. D. Sherrill,  D. G. Truhlar,  
 A. Aspuru-Guzik,  R. Baer,  A. T. Bell,  N. A. Besley,  Jeng-Da Chai,  
 A. E. DePrince, III,  R. A. DiStasio Jr.,  A. Dreuw,  B. D. Dunietz,  
 T. R. Furlani,  Chao-Ping Hsu,  Yousung Jung,  Jing Kong,  D. S. Lambrecht,  
 WanZhen Liang,  C. Ochsenfeld,  V. A. Rassolov,  L. V. Slipchenko,  
 J. E. Subotnik,  T. Van Voorhis,  J. M. Herbert,  A. I. Krylov,  
 P. M. W. Gill,  M. Head-Gordon

 Contributors to earlier versions of Q-Chem not listed above: 
 R. D. Adamson,  B. Austin,  J. Baker,  G. J. O. Beran,  K. Brandhorst,  
 S. T. Brown,  E. F. C. Byrd,  A. K. Chakraborty,  C.-L. Cheng,  
 Siu Hung Chien,  D. M. Chipman,  D. L. Crittenden,  H. Dachsel,  
 R. J. Doerksen,  A. D. Dutoi,  L. Fusti-Molnar,  W. A. Goddard III,  
 A. Golubeva-Zadorozhnaya,  S. R. Gwaltney,  G. Hawkins,  A. Heyden,  
 S. Hirata,  G. Kedziora,  F. J. Keil,  C. Kelley,  Jihan Kim,  R. A. King,  
 R. Z. Khaliullin,  P. P. Korambath,  W. Kurlancheek,  A. M. Lee,  M. S. Lee,  
 S. V. Levchenko,  Ching Yeh Lin,  D. Liotard,  R. C. Lochan,  I. Lotan,  
 P. E. Maslen,  N. Nair,  D. P. O'Neill,  D. Neuhauser,  E. Neuscamman,  
 C. M. Oana,  R. Olson,  B. Peters,  R. Peverati,  P. A. Pieniazek,  
 Y. M. Rhee,  J. Ritchie,  M. A. Rohrdanz,  E. Rosta,  N. J. Russ,  
 H. F. Schaefer III,  N. E. Schultz,  N. Shenvi,  A. C. Simmonett,  A. Sodt,  
 D. Stuck,  K. S. Thanthiriwatte,  V. Vanovschi,  Tao Wang,  A. Warshel,  
 C. F. Williams,  Q. Wu,  X. Xu,  W. Zhang

 Please cite Q-Chem as follows:
 Y. Shao et al., Mol. Phys. 113, 184-215 (2015)
 DOI: 10.1080/00268976.2014.952696

 Q-Chem 5.2.1 for Intel X86 EM64T Linux

 Parts of Q-Chem use Armadillo 8.300.2 (Tropical Shenanigans).
 http://arma.sourceforge.net/

 Q-Chem begins on Mon Feb  7 13:30:27 2022  

Host: 
0

     Scratch files written to /gpfs/fs0/scratch/a/aspuru/rhickman/descriptor_computation/qchem44721//
 Jul1719 |scratch|qcdevops|jenkins|workspace|build_RNUM -1
Processing $rem in /scinet/niagara/software/commercial/qc52/config/preferences:
	 MEM_TOTAL  4000 
NAlpha2: 100
NElect   100
Mult     1

Checking the input file for inconsistencies... 	...done.

--------------------------------------------------------------
User input:
--------------------------------------------------------------
$molecule
0 1
C         2.17725526800000    2.59125057040000    0.00381591380000
N         2.34145399840000    1.16684274210000    0.00147716490000
C         3.50479389940000    0.46123271140000   -0.00140387960000
N         3.34820760460000   -0.82710503780000   -0.00329356570000
C         1.33696040880000    0.23116268920000    0.00127265330000
C         1.99340005540000   -1.02462534350000   -0.00166877680000
C         1.23984522190000   -2.19446161780000   -0.00222636270000
C        -0.12974236770000   -2.07434390820000    0.00010474570000
C        -0.78437018170000   -0.82529747990000    0.00265625560000
C        -2.23799382720000   -0.83436329190000    0.00462261770000
C        -3.07200581260000    0.19498443480000   -0.00035565780000
F        -2.77521944580000    1.49232186170000   -0.00832455400000
F        -4.39860275490000    0.06071691100000    0.00197175380000
C        -0.04044259510000    0.35108355760000    0.00343495060000
H         3.15681177540000    3.06617110440000    0.00391474460000
H         1.62597187450000    2.90921925720000    0.89184324270000
H         1.62474933320000    2.91205005810000   -0.88243769700000
H         4.46211545680000    0.94745776350000   -0.00197042000000
H         1.72385517460000   -3.15736648780000   -0.00435176360000
H        -0.73633968560000   -2.96790298490000   -0.00028196010000
H        -2.71366182090000   -1.80441231870000    0.01018368940000
H        -0.51021012280000    1.32033511980000    0.00591247120000
$end

$rem
BASIS = 6-31G*
GUI = 2
METHOD = B3LYP
PRINT_ORBITALS false
MOLDEN_FORMAT false
--------------------------------------------------------------
 ----------------------------------------------------------------
             Standard Nuclear Orientation (Angstroms)
    I     Atom           X                Y                Z
 ----------------------------------------------------------------
    1      C      -2.1801608753    -2.5147355750     0.0033949271
    2      N      -2.2989462899    -1.0858234819     0.0012479857
    3      C      -3.4392417619    -0.3435484696    -0.0015059078
    4      N      -3.2417349004     0.9391537787    -0.0032311708
    5      C      -1.2651845052    -0.1825842363     0.0011364338
    6      C      -1.8813276659     1.0934585719    -0.0016206980
    7      C      -1.0909257802     2.2387213295    -0.0020471421
    8      C       0.2741455471     2.0750785448     0.0002275263
    9      C       0.8886923272     0.8058316374     0.0025956765
   10      C       2.3418682591     0.7686326344     0.0045200560
   11      C       3.1426998276    -0.2867345605    -0.0006180748
   12      F       2.8047772503    -1.5739689135    -0.0087484113
   13      F       4.4728978120    -0.1947528320     0.0016875575
   14      C       0.1077045378    -0.3462789741     0.0032420848
   15      H      -3.1743350481    -2.9582422653     0.0034605248
   16      H      -1.6392530622    -2.8502045086     0.8913641467
   17      H      -1.6381664862    -2.8528383767    -0.8829171848
   18      H      -4.4115520177    -0.7990614669    -0.0021078252
   19      H      -1.5440472469     3.2165418334    -0.0040318021
   20      H       0.9088721399     2.9488807816    -0.0000599300
   21      H       2.8481662045     1.7230519728     0.0101943038
   22      H       0.5463888259    -1.3299897526     0.0055784546
 ----------------------------------------------------------------
 Molecular Point Group                 C1    NOp =  1
 Largest Abelian Subgroup              C1    NOp =  1
 Nuclear Repulsion Energy =         840.39739645 hartrees
 There are       50 alpha and       50 beta electrons
 Requested basis set is 6-31G(d)
 There are 72 shells and 226 basis functions

 Total QAlloc Memory Limit   4000 MB
 Mega-Array Size       188 MB
 MEM_STATIC part       192 MB
 A cutoff of  1.0D-08 yielded   1747 shell pairs
 There are     18362 function pairs
 Smallest overlap matrix eigenvalue = 3.35E-04

 Scale SEOQF with 1.000000e-01/1.000000e-01/1.000000e+00

 Standard Electronic Orientation quadrupole field applied
 Nucleus-field energy     =     0.0000000353 hartrees
 Guess from superposition of atomic densities
 Warning:  Energy on first SCF cycle will be non-variational
 SAD guess density has 100.000000 electrons

 -----------------------------------------------------------------------
  General SCF calculation program by
  Eric Jon Sundstrom, Paul Horn, Yuezhi Mao, Dmitri Zuev, Alec White,
  David Stuck, Shaama M.S., Shane Yost, Joonho Lee, David Small,
  Daniel Levine, Susi Lehtola, Hugh Burton, Evgeny Epifanovsky,
  Bang C. Huynh
 -----------------------------------------------------------------------
 Exchange:     0.2000 Hartree-Fock + 0.0800 Slater + 0.7200 B88
 Correlation:  0.1900 VWN1RPA + 0.8100 LYP
 Using SG-1 standard quadrature grid
 A restricted SCF calculation will be
 performed using DIIS
 SCF converges when DIIS error is below 1.0e-05
 ---------------------------------------
  Cycle       Energy         DIIS error
 ---------------------------------------
    1    -698.5918991733      5.54e-02  
    2    -694.8232603874      5.83e-03  
    3    -694.5253933837      8.96e-03  
    4    -695.0260895831      1.80e-03  
    5    -695.0443947217      6.02e-04  
    6    -695.0461774019      2.85e-04  
    7    -695.0466697948      5.91e-05  
    8    -695.0466863238      2.67e-05  
    9    -695.0466908864      7.06e-06  Convergence criterion met
 ---------------------------------------
 SCF time:   CPU 32.58s  wall 32.00s 
 SCF   energy in the final basis set =     -695.0466908864
 Total energy in the final basis set =     -695.0466908864
 
 --------------------------------------------------------------
 
                    Orbital Energies (a.u.)
 --------------------------------------------------------------
 
 Alpha MOs
 -- Occupied --
-24.7421 -24.7307 -14.3953 -14.3100 -10.3518 -10.2474 -10.2439 -10.2184
-10.2032 -10.2031 -10.2001 -10.1906 -10.1844 -10.1837  -1.2817  -1.2210
 -1.0302  -0.9010  -0.8580  -0.7982  -0.7609  -0.7299  -0.7257  -0.6524
 -0.6276  -0.6030  -0.5855  -0.5665  -0.5334  -0.5216  -0.5157  -0.5053
 -0.4871  -0.4687  -0.4462  -0.4437  -0.4383  -0.4342  -0.4211  -0.4147
 -0.4145  -0.3994  -0.3759  -0.3563  -0.3557  -0.3017  -0.2778  -0.2664
 -0.2288  -0.2058
 -- Virtual --
 -0.0294   0.0111   0.0466   0.0805   0.0873   0.0931   0.1176   0.1404
  0.1446   0.1489   0.1525   0.1599   0.1659   0.1863   0.1938   0.2099
  0.2444   0.2593   0.2880   0.3153   0.3233   0.3317   0.3590   0.4090
  0.4219   0.4454   0.4775   0.4801   0.5009   0.5014   0.5082   0.5248
  0.5408   0.5441   0.5558   0.5773   0.5864   0.5904   0.5947   0.6037
  0.6132   0.6198   0.6330   0.6655   0.6873   0.6978   0.7005   0.7210
  0.7293   0.7443   0.7766   0.7937   0.7972   0.8206   0.8276   0.8289
  0.8400   0.8529   0.8596   0.8709   0.8936   0.8993   0.9119   0.9377
  0.9399   0.9660   0.9827   1.0144   1.0494   1.0579   1.0950   1.1225
  1.1433   1.1624   1.1636   1.2114   1.2142   1.2235   1.2378   1.2629
  1.3010   1.3206   1.3222   1.3316   1.3447   1.3619   1.3814   1.4047
  1.4148   1.4437   1.4669   1.4698   1.4724   1.4943   1.5170   1.5199
  1.5708   1.6180   1.6562   1.6899   1.7469   1.7666   1.7831   1.7837
  1.8344   1.8359   1.8432   1.8511   1.8753   1.8869   1.8948   1.9169
  1.9358   1.9557   1.9715   1.9919   2.0039   2.0084   2.0133   2.0350
  2.0539   2.0685   2.0990   2.1294   2.1610   2.1688   2.1767   2.2266
  2.2354   2.2417   2.2603   2.2792   2.2801   2.3292   2.3428   2.3515
  2.3893   2.4392   2.4985   2.5237   2.5281   2.5301   2.5778   2.6182
  2.6395   2.6635   2.6652   2.7128   2.7307   2.7418   2.7808   2.8251
  2.8808   2.9302   2.9459   3.0073   3.0749   3.1448   3.1508   3.2462
  3.3379   3.5055   4.0439   4.0818   4.1044   4.1282   4.1572   4.1851
  4.2514   4.2963   4.3781   4.4458   4.5139   4.7774   4.8400   5.2840
 --------------------------------------------------------------
 
          Ground-State Mulliken Net Atomic Charges

     Atom                 Charge (a.u.)
  ----------------------------------------
      1 C                    -0.329833
      2 N                    -0.483696
      3 C                     0.206311
      4 N                    -0.502643
      5 C                     0.329785
      6 C                     0.231980
      7 C                    -0.170936
      8 C                    -0.211497
      9 C                     0.179753
     10 C                    -0.300057
     11 C                     0.539180
     12 F                    -0.241101
     13 F                    -0.251514
     14 C                    -0.246744
     15 H                     0.175392
     16 H                     0.179692
     17 H                     0.179716
     18 H                     0.155420
     19 H                     0.140320
     20 H                     0.124180
     21 H                     0.159357
     22 H                     0.136935
  ----------------------------------------
  Sum of atomic charges =     0.000000

 -----------------------------------------------------------------
                    Cartesian Multipole Moments
 -----------------------------------------------------------------
    Charge (ESU x 10^10)
                 0.0000
    Dipole Moment (Debye)
         X      -0.3589      Y      -2.7911      Z       0.0100
       Tot       2.8141
    Quadrupole Moments (Debye-Ang)
        XX     -82.2997     XY      14.2185     YY     -69.2011
        XZ      -0.0040     YZ      -0.0069     ZZ     -79.9840
    Octopole Moments (Debye-Ang^2)
       XXX      28.3200    XXY     -39.3447    XYY       9.1352
       YYY     -20.5106    XXZ       0.0620    XYZ       0.0032
       YYZ       0.0229    XZZ      18.4985    YZZ     -11.1219
       ZZZ      -0.0707
    Hexadecapole Moments (Debye-Ang^3)
      XXXX   -2875.7326   XXXY     149.3185   XXYY    -604.8339
      XYYY      12.3660   YYYY    -895.4552   XXXZ      -0.2895
      XXYZ       0.1217   XYYZ       0.0132   YYYZ       0.0141
      XXZZ    -483.6812   XYZZ     -12.5002   YYZZ    -182.6556
      XZZZ      -0.2052   YZZZ       0.0951   ZZZZ     -81.7359
 -----------------------------------------------------------------
Archival summary:
1\1\nia1977.scinet.local\SP\ProcedureUnspecified\6-31G*\22108\rhickman\MonFeb713:31:002022MonFeb713:31:002022\0\\#,ProcedureUnspecified,6-31G*,\\0,1\N\C,1,1.36061\H,2,1.07372,1,121.835\N,2,1.29782,1,114.309,3,179.997,0\C,4,1.36913,2,105.225,1,0.00226932,0\C,1,1.37277,2,105.793,3,179.997,0\C,6,1.38262,1,132.055,2,-180,0\H,7,1.0771,6,120.834,1,-0.00766256,0\C,5,1.39153,4,131.083,2,-179.985,0\H,9,1.07771,5,120.526,4,-0.00741681,0\C,9,1.37485,5,117.775,4,179.988,0\H,11,1.08,9,119.159,5,180,0\C,7,1.39187,6,117.333,1,-179.99,0\C,1,1.43384,2,127.814,3,0.0155999,0\H,14,1.08861,1,109.29,2,-0.0538451,0\H,14,1.09252,1,110.379,2,-120.028,0\H,14,1.09253,1,110.383,2,119.924,0\C,13,1.45365,7,122.666,6,-179.995,0\H,18,1.08041,13,116.479,7,-179.621,0\C,18,1.32482,13,128.657,7,0.425479,0\F,20,1.33088,18,128.099,13,-0.00433482,0\F,20,1.33338,18,123.235,13,179.989,0\\\@

 Total job time:  32.87s(wall), 32.76s(cpu) 
 Mon Feb  7 13:31:00 2022

        *************************************************************
        *                                                           *
        *  Thank you very much for using Q-Chem.  Have a nice day.  *
        *                                                           *
        *************************************************************


