
Running Job 1 of 1 fragments/C150/conf-0/spe_input.inp
qchem fragments/C150/conf-0/spe_input.inp_341384.0 /gpfs/fs0/scratch/a/aspuru/rhickman/descriptor_computation/qchem341384/ 0
/scinet/niagara/software/commercial/qc52/exe/qcprog.exe_s fragments/C150/conf-0/spe_input.inp_341384.0 /gpfs/fs0/scratch/a/aspuru/rhickman/descriptor_computation/qchem341384/
                  Welcome to Q-Chem
     A Quantum Leap Into The Future Of Chemistry


 Q-Chem 5.2, Q-Chem, Inc., Pleasanton, CA (2019)

 License issued to: SRG Alan Aspuru-Guzik, University of Toronto

 Yihan Shao,  Zhengting Gan,  E. Epifanovsky,  A. T. B. Gilbert,  M. Wormit,  
 J. Kussmann,  A. W. Lange,  A. Behn,  Jia Deng,  Xintian Feng,  D. Ghosh,  
 M. Goldey,  P. R. Horn,  L. D. Jacobson,  I. Kaliman,  T. Kus,  A. Landau,  
 Jie Liu,  E. I. Proynov,  R. M. Richard,  R. P. Steele,  E. J. Sundstrom,  
 H. L. Woodcock III,  P. M. Zimmerman,  D. Zuev,  B. Albrecht,  E. Alguire,  
 S. A. Baeppler,  D. Barton,  Z. Benda,  Y. A. Bernard,  E. J. Berquist,  
 K. B. Bravaya,  H. Burton,  D. Casanova,  Chun-Min Chang,  Yunqing Chen,  
 A. Chien,  K. D. Closser,  M. P. Coons,  S. Coriani,  S. Dasgupta,  
 A. L. Dempwolff,  M. Diedenhofen,  Hainam Do,  R. G. Edgar,  Po-Tung Fang,  
 S. Faraji,  S. Fatehi,  Qingguo Feng,  K. D. Fenk,  J. Fosso-Tande,  
 J. Gayvert,  Qinghui Ge,  A. Ghysels,  G. Gidofalvi,  J. Gomes,  
 J. Gonthier,  A. Gunina,  D. Hait,  M. W. D. Hanson-Heine,  
 P. H. P. Harbach,  A. W. Hauser,  M. F. Herbst,  J. E. Herr,  
 E. G. Hohenstein,  Z. C. Holden,  Kerwin Hui,  B. C. Huynh,  T.-C. Jagau,  
 Hyunjun Ji,  B. Kaduk,  K. Khistyaev,  Jaehoon Kim,  P. Klunzinger,  K. Koh,  
 D. Kosenkov,  L. Koulias,  T. Kowalczyk,  C. M. Krauter,  A. Kunitsa,  
 Ka Un Lao,  A. Laurent,  K. V. Lawler,  Joonho Lee,  D. Lefrancois,  
 S. Lehtola,  D. S. Levine,  Yi-Pei Li,  You-Sheng Lin,  Fenglai Liu,  
 E. Livshits,  A. Luenser,  P. Manohar,  E. Mansoor,  S. F. Manzer,  
 Shan-Ping Mao,  Yuezhi Mao,  N. Mardirossian,  A. V. Marenich,  
 T. Markovich,  L. A. Martinez-Martinez,  S. A. Maurer,  N. J. Mayhall,  
 S. C. McKenzie,  J.-M. Mewes,  P. Morgante,  A. F. Morrison,  
 J. W. Mullinax,  K. Nanda,  T. S. Nguyen-Beck,  R. Olivares-Amaya,  
 J. A. Parkhill,  Zheng Pei,  T. M. Perrine,  F. Plasser,  P. Pokhilko,  
 S. Prager,  A. Prociuk,  E. Ramos,  D. R. Rehn,  F. Rob,  M. Scheurer,  
 M. Schneider,  N. Sergueev,  S. M. Sharada,  S. Sharma,  D. W. Small,  
 T. Stauch,  T. Stein,  Yu-Chuan Su,  A. J. W. Thom,  A. Tkatchenko,  
 T. Tsuchimochi,  N. M. Tubman,  L. Vogt,  M. L. Vidal,  O. Vydrov,  
 M. A. Watson,  J. Wenzel,  M. de Wergifosse,  T. A. Wesolowski,  A. White,  
 J. Witte,  A. Yamada,  Jun Yang,  K. Yao,  S. Yeganeh,  S. R. Yost,  
 Zhi-Qiang You,  A. Zech,  Igor Ying Zhang,  Xing Zhang,  Yan Zhao,  
 Ying Zhu,  B. R. Brooks,  G. K. L. Chan,  C. J. Cramer,  M. S. Gordon,  
 W. J. Hehre,  A. Klamt,  M. W. Schmidt,  C. D. Sherrill,  D. G. Truhlar,  
 A. Aspuru-Guzik,  R. Baer,  A. T. Bell,  N. A. Besley,  Jeng-Da Chai,  
 A. E. DePrince, III,  R. A. DiStasio Jr.,  A. Dreuw,  B. D. Dunietz,  
 T. R. Furlani,  Chao-Ping Hsu,  Yousung Jung,  Jing Kong,  D. S. Lambrecht,  
 WanZhen Liang,  C. Ochsenfeld,  V. A. Rassolov,  L. V. Slipchenko,  
 J. E. Subotnik,  T. Van Voorhis,  J. M. Herbert,  A. I. Krylov,  
 P. M. W. Gill,  M. Head-Gordon

 Contributors to earlier versions of Q-Chem not listed above: 
 R. D. Adamson,  B. Austin,  J. Baker,  G. J. O. Beran,  K. Brandhorst,  
 S. T. Brown,  E. F. C. Byrd,  A. K. Chakraborty,  C.-L. Cheng,  
 Siu Hung Chien,  D. M. Chipman,  D. L. Crittenden,  H. Dachsel,  
 R. J. Doerksen,  A. D. Dutoi,  L. Fusti-Molnar,  W. A. Goddard III,  
 A. Golubeva-Zadorozhnaya,  S. R. Gwaltney,  G. Hawkins,  A. Heyden,  
 S. Hirata,  G. Kedziora,  F. J. Keil,  C. Kelley,  Jihan Kim,  R. A. King,  
 R. Z. Khaliullin,  P. P. Korambath,  W. Kurlancheek,  A. M. Lee,  M. S. Lee,  
 S. V. Levchenko,  Ching Yeh Lin,  D. Liotard,  R. C. Lochan,  I. Lotan,  
 P. E. Maslen,  N. Nair,  D. P. O'Neill,  D. Neuhauser,  E. Neuscamman,  
 C. M. Oana,  R. Olson,  B. Peters,  R. Peverati,  P. A. Pieniazek,  
 Y. M. Rhee,  J. Ritchie,  M. A. Rohrdanz,  E. Rosta,  N. J. Russ,  
 H. F. Schaefer III,  N. E. Schultz,  N. Shenvi,  A. C. Simmonett,  A. Sodt,  
 D. Stuck,  K. S. Thanthiriwatte,  V. Vanovschi,  Tao Wang,  A. Warshel,  
 C. F. Williams,  Q. Wu,  X. Xu,  W. Zhang

 Please cite Q-Chem as follows:
 Y. Shao et al., Mol. Phys. 113, 184-215 (2015)
 DOI: 10.1080/00268976.2014.952696

 Q-Chem 5.2.1 for Intel X86 EM64T Linux

 Parts of Q-Chem use Armadillo 8.300.2 (Tropical Shenanigans).
 http://arma.sourceforge.net/

 Q-Chem begins on Tue Feb  8 15:38:30 2022  

Host: 
0

     Scratch files written to /gpfs/fs0/scratch/a/aspuru/rhickman/descriptor_computation/qchem341384//
 Jul1719 |scratch|qcdevops|jenkins|workspace|build_RNUM -1
Processing $rem in /scinet/niagara/software/commercial/qc52/config/preferences:
	 MEM_TOTAL  4000 
NAlpha2: 112
NElect   112
Mult     1

Checking the input file for inconsistencies... 	...done.

--------------------------------------------------------------
User input:
--------------------------------------------------------------
$molecule
0 1
C        -0.85903979910000   -3.46591958310000    0.67209785900000
C        -1.26072088700000   -2.46390284770000   -0.09805805050000
C        -0.70035968690000   -1.11353270180000   -0.09102055470000
C        -1.58365525560000   -0.03490233690000   -0.09240028650000
O        -2.91046238660000   -0.35349009440000   -0.12797440830000
C        -3.86341318180000    0.68002038730000   -0.14236310610000
C        -1.10823118550000    1.27901874850000   -0.02467933170000
C         0.23981082730000    1.56578757350000    0.04311298100000
C         0.76159387100000    2.91903373060000    0.14713749320000
C         0.05674330800000    4.04429259250000    0.20264988830000
C         1.16801423040000    0.48660044240000    0.00120918130000
N         2.48283790600000    0.77469214490000    0.03878276680000
C         3.35133398070000   -0.19221023290000   -0.03760497950000
C         2.99540863950000   -1.54099351710000   -0.20050291050000
C         1.66713402770000   -1.86539706690000   -0.23007338410000
C         0.69140597720000   -0.85300578410000   -0.08806876540000
H        -1.33230466420000   -4.43240350120000    0.62969994700000
H        -0.06438604490000   -3.35385970300000    1.39136855410000
H        -2.11193046990000   -2.59566469760000   -0.75409013050000
H        -4.83088560380000    0.18233573300000   -0.19364071910000
H        -3.74593526730000    1.32862779370000   -1.01669883880000
H        -3.81909697900000    1.28336257110000    0.77019690680000
H        -1.81128417790000    2.09535700030000   -0.00874479750000
H         1.84120131070000    2.95870864870000    0.17908391040000
H        -1.02004394050000    4.07110849060000    0.17691345470000
H         0.54386664040000    5.00123756560000    0.27762285770000
H         4.39249326740000    0.10268539120000    0.00720565080000
H         3.75992080200000   -2.29445878110000   -0.31315072140000
H         1.35234042580000   -2.88639327760000   -0.38538611000000
$end

$rem
BASIS = 6-31G*
GUI = 2
METHOD = B3LYP
PRINT_ORBITALS false
MOLDEN_FORMAT false
--------------------------------------------------------------
 ----------------------------------------------------------------
             Standard Nuclear Orientation (Angstroms)
    I     Atom           X                Y                Z
 ----------------------------------------------------------------
    1      C      -0.4175337404    -3.5462558957     0.6640469085
    2      C      -0.9342314789    -2.5967143811    -0.1040154057
    3      C      -0.5349779849    -1.1902732425    -0.0954303578
    4      C      -1.5379085727    -0.2218803855    -0.0940375330
    5      O      -2.8186176779    -0.6928056751    -0.1285976215
    6      C      -3.8854906845     0.2226796535    -0.1402066489
    7      C      -1.2186869522     1.1383757892    -0.0247303261
    8      C       0.0868620096     1.5801247873     0.0419716671
    9      C       0.4475945586     2.9847848960     0.1475927478
   10      C      -0.3834616705     4.0201915955     0.2057473610
   11      C       1.1344016997     0.6164742995    -0.0027573505
   12      N       2.4067640334     1.0557122796     0.0337664732
   13      C       3.3818770528     0.1966776998    -0.0451950235
   14      C       3.1852743997    -1.1841420885    -0.2098736231
   15      C       1.9037932947    -1.6610233986    -0.2384378324
   16      C       0.8169671689    -0.7693981716    -0.0936618798
   17      H      -0.7750492416    -4.5612266182     0.6206248144
   18      H       0.3596166215    -3.3434541869     1.3825809164
   19      H      -1.7651730746    -2.8257656460    -0.7592776522
   20      H      -4.7884700760    -0.3842409614    -0.1911760673
   21      H      -3.8455355349     0.8818491453    -1.0136222250
   22      H      -3.9105392047     0.8257257693     0.7732808702
   23      H      -2.0120252197     1.8672333408    -0.0066575908
   24      H       1.5152722154     3.1499056480     0.1783572559
   25      H      -1.4560754154     3.9214282451     0.1812976214
   26      H      -0.0110273741     5.0272544998     0.2817129478
   27      H       4.3816554125     0.6107834547    -0.0011071888
   28      H       4.0322002394    -1.8432523105    -0.3246282191
   29      H       1.7098692417    -2.7115078802    -0.3950460453
 ----------------------------------------------------------------
 Molecular Point Group                 C1    NOp =  1
 Largest Abelian Subgroup              C1    NOp =  1
 Nuclear Repulsion Energy =        1026.52819385 hartrees
 There are       56 alpha and       56 beta electrons
 Requested basis set is 6-31G(d)
 There are 90 shells and 266 basis functions

 Total QAlloc Memory Limit   4000 MB
 Mega-Array Size       188 MB
 MEM_STATIC part       192 MB
 A cutoff of  1.0D-08 yielded   2549 shell pairs
 There are     24874 function pairs
 Smallest overlap matrix eigenvalue = 2.50E-04

 Scale SEOQF with 1.000000e-01/1.000000e-01/1.000000e+00

 Standard Electronic Orientation quadrupole field applied
 Nucleus-field energy     =     0.0000000399 hartrees
 Guess from superposition of atomic densities
 Warning:  Energy on first SCF cycle will be non-variational
 SAD guess density has 112.000000 electrons

 -----------------------------------------------------------------------
  General SCF calculation program by
  Eric Jon Sundstrom, Paul Horn, Yuezhi Mao, Dmitri Zuev, Alec White,
  David Stuck, Shaama M.S., Shane Yost, Joonho Lee, David Small,
  Daniel Levine, Susi Lehtola, Hugh Burton, Evgeny Epifanovsky,
  Bang C. Huynh
 -----------------------------------------------------------------------
 Exchange:     0.2000 Hartree-Fock + 0.0800 Slater + 0.7200 B88
 Correlation:  0.1900 VWN1RPA + 0.8100 LYP
 Using SG-1 standard quadrature grid
 A restricted SCF calculation will be
 performed using DIIS
 SCF converges when DIIS error is below 1.0e-05
 ---------------------------------------
  Cycle       Energy         DIIS error
 ---------------------------------------
    1    -675.1500013660      5.05e-02  
    2    -671.0430015555      4.60e-03  
    3    -671.0544573687      4.60e-03  
    4    -671.2315366599      1.12e-03  
    5    -671.2411606784      3.97e-04  
    6    -671.2424582935      1.70e-04  
    7    -671.2427200152      4.26e-05  
    8    -671.2427339636      1.93e-05  
    9    -671.2427376296      3.14e-06  Convergence criterion met
 ---------------------------------------
 SCF time:   CPU 54.60s  wall 55.00s 
 SCF   energy in the final basis set =     -671.2427376296
 Total energy in the final basis set =     -671.2427376296
 
 --------------------------------------------------------------
 
                    Orbital Energies (a.u.)
 --------------------------------------------------------------
 
 Alpha MOs
 -- Occupied --
-19.1841 -14.3200 -10.2516 -10.2449 -10.2159 -10.2151 -10.2009 -10.1972
-10.1962 -10.1945 -10.1909 -10.1906 -10.1890 -10.1789 -10.1780 -10.1748
 -1.0741  -0.9461  -0.8581  -0.8211  -0.7853  -0.7646  -0.7569  -0.7259
 -0.6982  -0.6535  -0.6238  -0.6158  -0.5775  -0.5529  -0.5332  -0.5220
 -0.5155  -0.4780  -0.4754  -0.4667  -0.4569  -0.4409  -0.4362  -0.4288
 -0.4138  -0.4053  -0.4032  -0.3907  -0.3701  -0.3649  -0.3539  -0.3487
 -0.3288  -0.3275  -0.3064  -0.2755  -0.2618  -0.2454  -0.2364  -0.1969
 -- Virtual --
 -0.0580  -0.0094  -0.0028   0.0218   0.0814   0.0933   0.1110   0.1136
  0.1184   0.1353   0.1408   0.1464   0.1525   0.1567   0.1651   0.1680
  0.1852   0.1966   0.2127   0.2214   0.2260   0.2638   0.2684   0.2790
  0.2947   0.3013   0.3213   0.3339   0.3632   0.3732   0.3793   0.3941
  0.4246   0.4469   0.4685   0.4865   0.5013   0.5126   0.5132   0.5316
  0.5375   0.5390   0.5458   0.5597   0.5666   0.5755   0.5782   0.5856
  0.5986   0.6015   0.6066   0.6178   0.6233   0.6295   0.6415   0.6432
  0.6618   0.6766   0.6865   0.6872   0.7001   0.7122   0.7217   0.7359
  0.7502   0.7678   0.8146   0.8212   0.8293   0.8441   0.8454   0.8586
  0.8656   0.8672   0.8752   0.8915   0.8948   0.9026   0.9129   0.9277
  0.9321   0.9382   0.9593   0.9665   0.9784   0.9939   1.0030   1.0056
  1.0327   1.0462   1.0593   1.0791   1.0953   1.1262   1.1405   1.1508
  1.1632   1.1791   1.1870   1.2180   1.2484   1.2629   1.2809   1.2942
  1.3002   1.3198   1.3249   1.3640   1.3802   1.4175   1.4311   1.4472
  1.4611   1.4899   1.5037   1.5110   1.5130   1.5273   1.5374   1.5478
  1.5566   1.6034   1.6168   1.6809   1.6972   1.7098   1.7290   1.7682
  1.7857   1.7936   1.8144   1.8285   1.8477   1.8527   1.8840   1.9124
  1.9399   1.9426   1.9541   1.9665   1.9892   2.0097   2.0215   2.0496
  2.0643   2.0872   2.1082   2.1234   2.1375   2.1462   2.1630   2.1788
  2.1882   2.2100   2.2276   2.2333   2.2701   2.2716   2.2896   2.3041
  2.3155   2.3301   2.3480   2.3635   2.3684   2.4003   2.4191   2.4473
  2.4848   2.5161   2.5401   2.5694   2.5875   2.6147   2.6436   2.6543
  2.6769   2.6972   2.7264   2.7490   2.7894   2.8034   2.8227   2.8358
  2.8447   2.8615   2.9345   3.0434   3.0647   3.1116   3.1398   3.2277
  3.4651   3.5176   4.0546   4.0768   4.1013   4.1265   4.1496   4.1688
  4.2092   4.2233   4.2658   4.3082   4.3330   4.4390   4.4784   4.5408
  4.6182   4.8873
 --------------------------------------------------------------
 
          Ground-State Mulliken Net Atomic Charges

     Atom                 Charge (a.u.)
  ----------------------------------------
      1 C                    -0.341257
      2 C                    -0.107355
      3 C                    -0.011750
      4 C                     0.349774
      5 O                    -0.509638
      6 C                    -0.215241
      7 C                    -0.301510
      8 C                     0.154922
      9 C                    -0.095539
     10 C                    -0.354014
     11 C                     0.171166
     12 N                    -0.508246
     13 C                     0.043214
     14 C                    -0.160506
     15 C                    -0.154715
     16 C                     0.121214
     17 H                     0.143057
     18 H                     0.150167
     19 H                     0.147059
     20 H                     0.171653
     21 H                     0.154066
     22 H                     0.155115
     23 H                     0.133011
     24 H                     0.166811
     25 H                     0.133411
     26 H                     0.144551
     27 H                     0.134654
     28 H                     0.133988
     29 H                     0.151939
  ----------------------------------------
  Sum of atomic charges =     0.000000

 -----------------------------------------------------------------
                    Cartesian Multipole Moments
 -----------------------------------------------------------------
    Charge (ESU x 10^10)
                 0.0000
    Dipole Moment (Debye)
         X      -1.6638      Y      -0.8577      Z      -0.2425
       Tot       1.8875
    Quadrupole Moments (Debye-Ang)
        XX     -78.4094     XY      -7.6293     YY     -88.3861
        XZ       0.8644     YZ       0.2826     ZZ     -95.6747
    Octopole Moments (Debye-Ang^2)
       XXX     -30.5386    XXY      -0.4766    XYY      -6.4121
       YYY      -9.8791    XXZ      -5.0501    XYZ      -1.7547
       YYZ       2.2409    XZZ      -6.6850    YZZ      -4.6318
       ZZZ      -0.6565
    Hexadecapole Moments (Debye-Ang^3)
      XXXX   -2077.0707   XXXY     -52.0901   XXYY    -771.4221
      XYYY       8.9754   YYYY   -2141.4595   XXXZ       4.5084
      XXYZ       9.3510   XYYZ       6.9659   YYYZ      -0.0495
      XXZZ    -440.1667   XYZZ       2.6783   YYZZ    -430.5569
      XZZZ       6.3033   YZZZ      -3.1435   ZZZZ    -139.2917
 -----------------------------------------------------------------
Archival summary:
1\1\nia2015.scinet.local\SP\ProcedureUnspecified\6-31G*\111413\rhickman\TueFeb815:39:252022TueFeb815:39:252022\0\\#,ProcedureUnspecified,6-31G*,\\0,1\O\C,1,1.36498\C,2,1.39415,1,115.804\C,2,1.39893,1,123.423,3,-178.32,0\H,4,1.07747,2,119.378,1,-0.631211,0\C,4,1.37987,2,121.977,1,178.37,0\C,1,1.40587,2,119.181,3,-179.503,0\H,7,1.08918,1,105.466,2,178.745,0\H,7,1.09488,1,111.663,2,-62.8982,0\H,7,1.09497,1,111.772,2,60.2305,0\C,3,1.41594,2,118.712,1,178.474,0\C,11,1.4132,3,123.136,2,-173.03,0\H,12,1.07965,11,119.38,3,2.33758,0\C,12,1.36764,11,119.899,3,-179.155,0\H,14,1.0793,12,121.34,11,-179.594,0\C,14,1.40443,12,118.453,11,-0.469907,0\H,16,1.08304,14,120.659,12,178.984,0\N,16,1.30193,14,123.435,12,-2.56961,0\C,18,1.34654,16,119.396,14,2.02554,0\C,6,1.45408,4,123.195,2,-178.453,0\H,20,1.08081,6,113.248,4,-179.399,0\C,20,1.32895,6,126.918,4,0.597617,0\H,22,1.07641,20,121.041,6,-179.888,0\H,22,1.07743,20,123.377,6,0.113364,0\C,3,1.46204,2,118.148,1,-1.28831,0\H,25,1.08273,3,114.622,2,41.4177,0\C,25,1.32609,3,125.381,2,-134.507,0\H,27,1.07697,25,121.475,3,178.644,0\H,27,1.07767,25,122.168,3,0.397895,0\\\@

 Total job time:  54.99s(wall), 54.83s(cpu) 
 Tue Feb  8 15:39:25 2022

        *************************************************************
        *                                                           *
        *  Thank you very much for using Q-Chem.  Have a nice day.  *
        *                                                           *
        *************************************************************


