26
 energy: -40.962046323317 gnorm: 0.000066373696 xtb: 6.4.1 (23d549d)
C        -2.98059071290000   -3.21447407530000    0.17405525570000
C        -1.73303939350000   -2.81221222770000   -0.03430551950000
C        -1.25419036930000   -1.43359026290000   -0.05055324400000
C        -2.11055284280000   -0.33374803130000   -0.04972361330000
C        -1.63463895860000    0.97612081210000   -0.07359855380000
C        -2.51571098130000    2.13974807220000   -0.08087792850000
C        -3.82339533010000    2.14258547700000    0.14581716930000
C        -0.25217198870000    1.17864314020000   -0.10048956970000
C         0.59565398290000    0.09320705040000   -0.09807535650000
S         2.36682223500000    0.37306807200000   -0.08792041710000
C         2.75397142230000    0.45068322510000    1.68834011850000
O         3.02994149550000   -0.77680778230000   -0.64058887900000
O         2.64477426590000    1.66118193170000   -0.66314074930000
C         0.12350544980000   -1.20047716500000   -0.07677334160000
H        -3.23739061440000   -4.25962011380000    0.17129010670000
H        -3.79212276830000   -2.53233066420000    0.36138528970000
H        -0.96129279180000   -3.55327576190000   -0.19924173140000
H        -3.17508073320000   -0.50158464970000   -0.05753621900000
H        -2.01315621280000    3.07768884230000   -0.27997415540000
H        -4.38046403820000    1.24868649500000    0.36864880040000
H        -4.39154226970000    3.05636473380000    0.12345474620000
H         0.17144046720000    2.17031344440000   -0.14143829860000
H         2.47990381720000   -0.49694980700000    2.13293196860000
H         2.19071033140000    1.26815004840000    2.11881188980000
H         3.81783464450000    0.62584858090000    1.78784583140000
H         0.83227656630000   -2.01389902490000   -0.09988651510000
