
Running Job 1 of 1 tidas/B051/conf-0/spe_input.inp
qchem tidas/B051/conf-0/spe_input.inp_134539.0 /home/a/aspuru/seifridm/acdc_laser/descriptor_computation/qchem134539/ 0
/gpfs/fs1/scinet/niagara/software/commercial/qc54/exe/qcprog.exe_s tidas/B051/conf-0/spe_input.inp_134539.0 /home/a/aspuru/seifridm/acdc_laser/descriptor_computation/qchem134539/
                  Welcome to Q-Chem
     A Quantum Leap Into The Future Of Chemistry


 Q-Chem 5.4, Q-Chem, Inc., Pleasanton, CA (2021)

 License issued to: SRG Alan Aspuru-Guzik, University of Toronto

 E. Epifanovsky,  A. T. B. Gilbert,  Xintian Feng,  Joonho Lee,  Yuezhi Mao,  
 N. Mardirossian,  P. Pokhilko,  A. White,  M. Wormit,  M. P. Coons,  
 A. L. Dempwolff,  Zhengting Gan,  D. Hait,  P. R. Horn,  L. D. Jacobson,  
 I. Kaliman,  J. Kussmann,  A. W. Lange,  Ka Un Lao,  D. S. Levine,  Jie Liu,  
 S. C. McKenzie,  A. F. Morrison,  K. Nanda,  F. Plasser,  D. R. Rehn,  
 M. L. Vidal,  Zhi-Qiang You,  Ying Zhu,  B. Alam,  B. Albrecht,  
 A. Aldossary,  E. Alguire,  J. H. Andersen,  D. Barton,  K. Begam,  A. Behn,  
 Y. A. Bernard,  E. J. Berquist,  H. Burton,  A. Carreras,  K. Carter-Fenk,  
 Romit Chakraborty,  A. D. Chien,  K. D. Closser,  V. Cofer-Shabica,  
 S. Dasgupta,  Jia Deng,  M. de Wergifosse,  M. Diedenhofen,  Hainam Do,  
 S. Ehlert,  Po-Tung Fang,  S. Fatehi,  Qingguo Feng,  T. Friedhoff,  
 J. Gayvert,  Qinghui Ge,  G. Gidofalvi,  M. Goldey,  J. Gomes,  
 C. Gonzalez-Espinoza,  S. Gulania,  A. Gunina,  M. W. D. Hanson-Heine,  
 P. H. P. Harbach,  A. W. Hauser,  M. F. Herbst,  M. Hernandez Vera,  
 M. Hodecker,  Z. C. Holden,  S. Houck,  Xunkun Huang,  Kerwin Hui,  
 B. C. Huynh,  M. Ivanov,  Hyunjun Ji,  Hanjie Jiang,  B. Kaduk,  S. Kaehler,  
 K. Khistyaev,  Jaehoon Kim,  P. Klunzinger,  Z. Koczor-Benda,  
 Joong Hoon Koh,  D. Kosenkov,  L. Koulias,  T. Kowalczyk,  C. M. Krauter,  
 K. Kue,  A. Kunitsa,  T. Kus,  A. Landau,  K. V. Lawler,  D. Lefrancois,  
 S. Lehtola,  Rain Li,  Yi-Pei Li,  Jiashu Liang,  M. Liebenthal,  
 Hung-Hsuan Lin,  You-Sheng Lin,  Fenglai Liu,  Kuan-Yu Liu,  
 M. Loipersberger,  A. Luenser,  A. Manjanath,  P. Manohar,  E. Mansoor,  
 S. F. Manzer,  Shan-Ping Mao,  A. V. Marenich,  T. Markovich,  S. Mason,  
 S. A. Maurer,  P. F. McLaughlin,  M. F. S. J. Menger,  J.-M. Mewes,  
 S. A. Mewes,  P. Morgante,  J. W. Mullinax,  K. J. Oosterbaan,  G. Paran,  
 Alexander C. Paul,  Suranjan K. Paul,  F. Pavosevic,  Zheng Pei,  S. Prager,  
 E. I. Proynov,  E. Ramos,  B. Rana,  A. E. Rask,  A. Rettig,  R. M. Richard,  
 F. Rob,  E. Rossomme,  T. Scheele,  M. Scheurer,  M. Schneider,  
 N. Sergueev,  S. M. Sharada,  W. Skomorowski,  D. W. Small,  C. J. Stein,  
 Yu-Chuan Su,  E. J. Sundstrom,  Zhen Tao,  J. Thirman,  T. Tsuchimochi,  
 N. M. Tubman,  S. P. Veccham,  O. Vydrov,  J. Wenzel,  J. Witte,  A. Yamada,  
 Kun Yao,  S. Yeganeh,  S. R. Yost,  A. Zech,  Igor Ying Zhang,  Xing Zhang,  
 Yu Zhang,  D. Zuev,  A. Aspuru-Guzik,  A. T. Bell,  N. A. Besley,  
 K. B. Bravaya,  B. R. Brooks,  D. Casanova,  Jeng-Da Chai,  S. Coriani,  
 C. J. Cramer,  A. E. DePrince, III,  R. A. DiStasio Jr.,  A. Dreuw,  
 B. D. Dunietz,  T. R. Furlani,  W. A. Goddard III,  S. Grimme,  
 S. Hammes-Schiffer,  T. Head-Gordon,  W. J. Hehre,  Chao-Ping Hsu,  
 T.-C. Jagau,  Yousung Jung,  A. Klamt,  Jing Kong,  D. S. Lambrecht,  
 WanZhen Liang,  N. J. Mayhall,  C. W. McCurdy,  J. B. Neaton,  T. Neudecker,  
 C. Ochsenfeld,  J. A. Parkhill,  R. Peverati,  V. A. Rassolov,  Yihan Shao,  
 L. V. Slipchenko,  R. P. Steele,  J. E. Subotnik,  A. J. W. Thom,  
 A. Tkatchenko,  D. G. Truhlar,  T. Van Voorhis,  T. A. Wesolowski,  
 K. B. Whaley,  H. L. Woodcock III,  P. M. Zimmerman,  S. Faraji,  
 P. M. W. Gill,  M. Head-Gordon,  J. M. Herbert,  A. I. Krylov

 Additional authors since Version 5.4.0: 
 Chandrima Chakravarty,  L. Cunha,  R. Kang,  Yongbin Kim,  S. Kotaru,  
 Shaozhi Li,  Xiangyuan Li,  F. Matz,  A. Molle,  V. Parravicini,  
 Haisheng Ren,  Hengyuan Shen,  Yingli Su,  Hung-Yi Tsai,  C. Utku,  
 Fang Wang,  Jeff Yang,  F. Zeller

 Contributors to earlier versions of Q-Chem not listed above: 
 R. D. Adamson,  B. Austin,  R. Baer,  J. Baker,  G. J. O. Beran,  
 K. Brandhorst,  S. T. Brown,  E. F. C. Byrd,  Arup K. Chakraborty,  
 G. K. L. Chan,  Chun-Min Chang,  Yunqing Chen,  C.-L. Cheng,  
 Siu Hung Chien,  D. M. Chipman,  D. L. Crittenden,  H. Dachsel,  
 R. J. Doerksen,  A. D. Dutoi,  R. G. Edgar,  J. Fosso-Tande,  
 L. Fusti-Molnar,  D. Ghosh,  A. Ghysels,  A. Golubeva-Zadorozhnaya,  
 J. Gonthier,  M. S. Gordon,  S. R. Gwaltney,  G. Hawkins,  J. E. Herr,  
 A. Heyden,  S. Hirata,  E. G. Hohenstein,  G. Kedziora,  F. J. Keil,  
 C. Kelley,  Jihan Kim,  R. A. King,  R. Z. Khaliullin,  P. P. Korambath,  
 W. Kurlancheek,  A. Laurent,  A. M. Lee,  M. S. Lee,  S. V. Levchenko,  
 Ching Yeh Lin,  D. Liotard,  E. Livshits,  R. C. Lochan,  I. Lotan,  
 L. A. Martinez-Martinez,  P. E. Maslen,  N. Nair,  D. P. O'Neill,  
 D. Neuhauser,  E. Neuscamman,  C. M. Oana,  R. Olivares-Amaya,  R. Olson,  
 T. M. Perrine,  B. Peters,  P. A. Pieniazek,  A. Prociuk,  Y. M. Rhee,  
 J. Ritchie,  M. A. Rohrdanz,  E. Rosta,  N. J. Russ,  H. F. Schaefer III,  
 M. W. Schmidt,  N. E. Schultz,  S. Sharma,  N. Shenvi,  C. D. Sherrill,  
 A. C. Simmonett,  A. Sodt,  T. Stein,  D. Stuck,  K. S. Thanthiriwatte,  
 V. Vanovschi,  L. Vogt,  Tao Wang,  A. Warshel,  M. A. Watson,  
 C. F. Williams,  Q. Wu,  X. Xu,  Jun Yang,  W. Zhang,  Yan Zhao

   Please cite Q-Chem as follows:
  "Software for the frontiers of quantum chemistry:
   An overview of developments in the Q-Chem 5 package"
   J. Chem. Phys. 155, 084801 (2021)
   https://doi.org/10.1063/5.0055522 (open access)

 Q-Chem 5.4.2 for Intel X86 EM64T Linux

 Parts of Q-Chem use Armadillo 9.900.5 (Nocturnal Misbehaviour).
 http://arma.sourceforge.net/

 Q-Chem begins on Fri Aug 12 13:11:43 2022  

 Host: 
0

     Scratch files written to /home/a/aspuru/seifridm/acdc_laser/descriptor_computation/qchem134539//
 Dec1321 |scratch|qcdevops|jenkins|workspace|build_RNUM 6959   
 Processing $rem in /gpfs/fs1/scinet/niagara/software/commercial/qc54/config/preferences:
 Processing $rem in /home/a/aspuru/seifridm/.qchemrc:

 Checking the input file for inconsistencies... 	...done.

--------------------------------------------------------------
User input:
--------------------------------------------------------------
$molecule
0 1
C            1.57398827560000        3.06736153830000        0.04325909440000
C            1.21828417140000        1.89780300530000        0.55598724640000
C           -0.03165313770000        1.20088879390000        0.26052859550000
C           -1.20020181450000        1.92477294320000        0.02470534200000
C           -2.41475974580000        1.30048535090000       -0.17263474020000
C           -2.48133002810000       -0.08128190360000       -0.11985727730000
F           -3.65976331210000       -0.70144122250000       -0.29063371750000
C           -1.33347532640000       -0.82212484270000        0.11201695370000
F           -1.40347204240000       -2.16484566040000        0.15277341920000
C           -0.09522937480000       -0.20288338730000        0.28523502920000
C            1.06491660110000       -1.07094452070000        0.48265047970000
C            2.25006171100000       -0.91958813280000       -0.08519844830000
F            2.61462880200000        0.02799464360000       -0.93695610540000
F            3.26923926710000       -1.74720310370000        0.11149678360000
H            2.50256196790000        3.53859239890000        0.31305333400000
H            0.97024563550000        3.58198748200000       -0.68471474260000
H            1.87746405390000        1.39396238990000        1.25132640970000
H           -1.15375611470000        3.00193034230000        0.02081225760000
H           -3.31624114260000        1.86335066660000       -0.35318964200000
H            0.92349466400000       -1.95610146960000        1.08578168960000
$end

$rem
BASIS = 6-31G*
GUI = 2
METHOD = B3LYP
PRINT_ORBITALS false
MOLDEN_FORMAT false
$end
--------------------------------------------------------------
 ----------------------------------------------------------------
             Standard Nuclear Orientation (Angstroms)
    I     Atom           X                Y                Z
 ----------------------------------------------------------------
    1      C       1.5925157644     2.9772822291     0.0345355978
    2      C       1.2309847303     1.8081247241     0.5440930232
    3      C      -0.0261806659     1.1223049882     0.2533784458
    4      C      -1.1905363948     1.8563155934     0.0283650092
    5      C      -2.4111377585     1.2423857825    -0.1641228412
    6      C      -2.4881140279    -0.1390564769    -0.1173281128
    7      F      -3.6723921404    -0.7492624453    -0.2834642217
    8      C      -1.3446081174    -0.8898463856     0.1037896869
    9      F      -1.4247832192    -2.2321609502     0.1387666309
   10      C      -0.1005120114    -0.2810329768     0.2719819301
   11      C       1.0540770349    -1.1589696356     0.4579739566
   12      C       2.2367411653    -1.0141389738    -0.1167083268
   13      F       2.6032605113    -0.0654284532    -0.9663702041
   14      F       3.2506788038    -1.8505358451     0.0696493504
   15      H       2.5264163124     3.4400373037     0.3005883468
   16      H       0.9881920519     3.4999740371    -0.6871825390
   17      H       1.8906199646     1.2959412897     1.2328742093
   18      H      -1.1357423934     2.9330873390     0.0291693383
   19      H      -3.3093414131     1.8130565835    -0.3363180114
   20      H       0.9096015635    -2.0458205199     1.0578844433
 ----------------------------------------------------------------
 Molecular Point Group                 C1    NOp =  1
 Largest Abelian Subgroup              C1    NOp =  1
 Nuclear Repulsion Energy =         873.31295135 hartrees
 There are       51 alpha and       51 beta electrons
 Requested basis set is 6-31G(d)
 There are 68 shells and 222 basis functions

 Total QAlloc Memory Limit   8000 MB
 Mega-Array Size       188 MB
 MEM_STATIC part       192 MB
 A cutoff of  1.0D-08 yielded   1596 shell pairs
 There are     18097 function pairs
 Smallest overlap matrix eigenvalue = 3.39E-04

 Scale SEOQF with 1.000000e-01/1.000000e-01/1.000000e+00

 Standard Electronic Orientation quadrupole field applied
 Nucleus-field energy     =     0.0000000168 hartrees
 Guess from superposition of atomic densities
 Warning:  Energy on first SCF cycle will be non-variational
 SAD guess density has 102.000000 electrons

 -----------------------------------------------------------------------
  General SCF calculation program by
  Eric Jon Sundstrom, Paul Horn, Yuezhi Mao, Dmitri Zuev, Alec White,
  David Stuck, Shaama M.S., Shane Yost, Joonho Lee, David Small,
  Daniel Levine, Susi Lehtola, Hugh Burton, Evgeny Epifanovsky,
  Bang C. Huynh
 -----------------------------------------------------------------------
 Exchange:     0.2000 Hartree-Fock + 0.0800 Slater + 0.7200 B88
 Correlation:  0.1900 VWN1RPA + 0.8100 LYP
 Using SG-1 standard quadrature grid
 A restricted SCF calculation will be
 performed using DIIS
 SCF converges when DIIS error is below 1.0e-05
 ---------------------------------------
  Cycle       Energy         DIIS error
 ---------------------------------------
    1    -787.0365111885      5.24e-02  
    2    -783.7661202205      5.84e-03  
    3    -783.5633471789      8.11e-03  
    4    -783.9568974142      1.35e-03  
    5    -783.9675154258      4.81e-04  
    6    -783.9685885635      2.40e-04  
    7    -783.9689517798      4.77e-05  
    8    -783.9689636854      1.87e-05  
    9    -783.9689660820      4.46e-06  Convergence criterion met
 ---------------------------------------
 SCF time:   CPU 51.85s  wall 53.00s 
 SCF   energy in the final basis set =     -783.9689660820
 Total energy in the final basis set =     -783.9689660820
 
 --------------------------------------------------------------
 
                    Orbital Energies (a.u.)
 --------------------------------------------------------------
 
 Alpha MOs
 -- Occupied --
-24.7459 -24.7421 -24.7208 -24.7165 -10.3660 -10.2837 -10.2827 -10.2229
-10.2114 -10.2112 -10.2061 -10.2024 -10.1972 -10.1859  -1.2916  -1.2377
 -1.2308  -1.2242  -0.8893  -0.8210  -0.8021  -0.7567  -0.7357  -0.6632
 -0.6439  -0.6239  -0.5846  -0.5803  -0.5628  -0.5322  -0.5287  -0.5206
 -0.5051  -0.4892  -0.4844  -0.4556  -0.4505  -0.4470  -0.4439  -0.4407
 -0.4305  -0.4225  -0.4094  -0.3897  -0.3732  -0.3673  -0.3530  -0.2988
 -0.2927  -0.2425  -0.2303
 -- Virtual --
 -0.0395  -0.0221   0.0349   0.0476   0.0744   0.1091   0.1158   0.1257
  0.1448   0.1613   0.1704   0.1812   0.1919   0.2058   0.2237   0.2736
  0.3062   0.3230   0.3374   0.3615   0.3696   0.4057   0.4117   0.4650
  0.4883   0.4962   0.4989   0.5166   0.5221   0.5248   0.5330   0.5619
  0.5655   0.5709   0.5823   0.5941   0.6016   0.6081   0.6251   0.6373
  0.6553   0.6719   0.6810   0.6962   0.7175   0.7558   0.7716   0.8222
  0.8342   0.8394   0.8597   0.8637   0.8700   0.8952   0.9169   0.9346
  0.9385   0.9412   0.9799   0.9879   1.0073   1.0497   1.0690   1.0997
  1.1167   1.1384   1.1670   1.1749   1.1852   1.1950   1.2137   1.2245
  1.2399   1.2771   1.2893   1.2957   1.3340   1.3573   1.3607   1.3805
  1.3979   1.4209   1.4394   1.4487   1.4536   1.4581   1.4844   1.4993
  1.5072   1.5762   1.5831   1.6508   1.6690   1.7099   1.7166   1.7445
  1.7612   1.7747   1.7843   1.7909   1.8059   1.8175   1.8377   1.8404
  1.8490   1.8622   1.8784   1.8899   1.8981   1.9436   1.9732   1.9803
  2.0022   2.0071   2.0107   2.0215   2.0513   2.0790   2.0875   2.1055
  2.1217   2.1665   2.1796   2.2012   2.2314   2.2545   2.2794   2.3051
  2.3156   2.3275   2.3483   2.3728   2.4222   2.4314   2.4494   2.5160
  2.5319   2.5626   2.6003   2.6228   2.6325   2.6460   2.6956   2.7115
  2.7374   2.7734   2.8382   2.8993   2.9662   3.0148   3.0380   3.0453
  3.1156   3.1570   3.2039   3.3367   3.4641   4.0487   4.0738   4.0978
  4.1094   4.1538   4.2592   4.2756   4.4124   4.4341   4.7415   4.7844
  4.9029   5.2761   6.1509
 --------------------------------------------------------------
 
          Ground-State Mulliken Net Atomic Charges

     Atom                 Charge (a.u.)
  ----------------------------------------
      1 C                    -0.338942
      2 C                    -0.128588
      3 C                     0.122732
      4 C                    -0.183344
      5 C                    -0.201256
      6 C                     0.325716
      7 F                    -0.282572
      8 C                     0.254490
      9 F                    -0.275922
     10 C                     0.014794
     11 C                    -0.325347
     12 C                     0.571844
     13 F                    -0.224825
     14 F                    -0.240108
     15 H                     0.147280
     16 H                     0.145176
     17 H                     0.140579
     18 H                     0.142239
     19 H                     0.155052
     20 H                     0.181002
  ----------------------------------------
  Sum of atomic charges =     0.000000

 -----------------------------------------------------------------
                    Cartesian Multipole Moments
 -----------------------------------------------------------------
    Charge (ESU x 10^10)
                 0.0000
    Dipole Moment (Debye)
         X       0.4231      Y       1.6616      Z       0.4860
       Tot       1.7821
    Quadrupole Moments (Debye-Ang)
        XX     -78.5774     XY      -3.1395     YY     -72.6930
        XZ       1.7544     YZ      -1.6743     ZZ     -76.2266
    Octopole Moments (Debye-Ang^2)
       XXX      10.7562    XXY       9.2488    XYY       4.0038
       YYY     -20.7863    XXZ       1.0176    XYZ       2.7722
       YYZ      -6.0045    XZZ       3.7407    YZZ     -17.8942
       ZZZ      -9.3881
    Hexadecapole Moments (Debye-Ang^3)
      XXXX   -1946.9773   XXXY     -18.5655   XXYY    -493.9102
      XYYY      -4.7260   YYYY   -1126.1897   XXXZ      -0.7548
      XXYZ       0.9246   XYYZ      -0.1784   YYYZ     -24.6756
      XXZZ    -338.0325   XYZZ       0.0302   YYZZ    -219.5867
      XZZZ     -11.7689   YZZZ      -4.7813   ZZZZ    -134.0443
 -----------------------------------------------------------------
 Total job time:  56.36s(wall), 52.34s(cpu) 
 Fri Aug 12 13:12:39 2022

        *************************************************************
        *                                                           *
        *  Thank you very much for using Q-Chem.  Have a nice day.  *
        *                                                           *
        *************************************************************


