20
 energy: -43.341946319051 gnorm: 0.000034588267 xtb: 6.5.0 (unknown)
C            1.57398827560000        3.06736153830000        0.04325909440000
C            1.21828417140000        1.89780300530000        0.55598724640000
C           -0.03165313770000        1.20088879390000        0.26052859550000
C           -1.20020181450000        1.92477294320000        0.02470534200000
C           -2.41475974580000        1.30048535090000       -0.17263474020000
C           -2.48133002810000       -0.08128190360000       -0.11985727730000
F           -3.65976331210000       -0.70144122250000       -0.29063371750000
C           -1.33347532640000       -0.82212484270000        0.11201695370000
F           -1.40347204240000       -2.16484566040000        0.15277341920000
C           -0.09522937480000       -0.20288338730000        0.28523502920000
C            1.06491660110000       -1.07094452070000        0.48265047970000
C            2.25006171100000       -0.91958813280000       -0.08519844830000
F            2.61462880200000        0.02799464360000       -0.93695610540000
F            3.26923926710000       -1.74720310370000        0.11149678360000
H            2.50256196790000        3.53859239890000        0.31305333400000
H            0.97024563550000        3.58198748200000       -0.68471474260000
H            1.87746405390000        1.39396238990000        1.25132640970000
H           -1.15375611470000        3.00193034230000        0.02081225760000
H           -3.31624114260000        1.86335066660000       -0.35318964200000
H            0.92349466400000       -1.95610146960000        1.08578168960000
