26
 energy: -48.712633130255 gnorm: 0.000045595772 xtb: 6.5.0 (unknown)
C            1.89633714230000       -3.83052929360000       -0.36044552400000
C            1.13702640230000       -3.18926959570000        0.51575279930000
C            0.74384936690000       -1.77967177350000        0.41682698430000
C           -0.58195787440000       -1.46782072360000        0.59529631030000
C           -1.08624290260000       -0.16253823000000        0.42806862700000
C           -2.51700615420000        0.06643212650000        0.60688542650000
C           -3.26987987650000        0.90301086580000       -0.08972125160000
F           -2.90532593380000        1.65881236630000       -1.11043415450000
F           -4.57470278190000        1.05629822250000        0.12632938280000
C           -0.18748024160000        0.83275114250000        0.11826098400000
F           -0.61112601320000        2.10774152170000        0.00342988370000
C            1.19409143260000        0.58818521550000       -0.02566784030000
C            2.09808414540000        1.63369417620000       -0.30950091010000
C            3.43714966170000        1.38302477420000       -0.41072311650000
C            3.92456171040000        0.08448724330000       -0.20752683200000
C            3.06751496510000       -0.94827212740000        0.05969245890000
C            1.67529650440000       -0.73954106490000        0.13272666560000
H            2.11808198480000       -4.87875421410000       -0.25294362630000
H            2.30289700470000       -3.34116931900000       -1.22978043580000
H            0.69831003970000       -3.73110970760000        1.34477891750000
H           -1.28347701060000       -2.25482835720000        0.83169183600000
H           -3.01935936550000       -0.52313452960000        1.35897841800000
H            1.70891680600000        2.63232578070000       -0.43797399380000
H            4.12659815990000        2.18441587670000       -0.62951862460000
H            4.98824667610000       -0.09612566800000       -0.25622744920000
H            3.45653918490000       -1.93814207050000        0.23933233440000
