
Running Job 1 of 1 fragments/B001/conf-0/spe_input.inp
qchem fragments/B001/conf-0/spe_input.inp_361920.0 /gpfs/fs0/scratch/a/aspuru/rhickman/descriptor_computation/qchem361920/ 0
/scinet/niagara/software/commercial/qc52/exe/qcprog.exe_s fragments/B001/conf-0/spe_input.inp_361920.0 /gpfs/fs0/scratch/a/aspuru/rhickman/descriptor_computation/qchem361920/
                  Welcome to Q-Chem
     A Quantum Leap Into The Future Of Chemistry


 Q-Chem 5.2, Q-Chem, Inc., Pleasanton, CA (2019)

 License issued to: SRG Alan Aspuru-Guzik, University of Toronto

 Yihan Shao,  Zhengting Gan,  E. Epifanovsky,  A. T. B. Gilbert,  M. Wormit,  
 J. Kussmann,  A. W. Lange,  A. Behn,  Jia Deng,  Xintian Feng,  D. Ghosh,  
 M. Goldey,  P. R. Horn,  L. D. Jacobson,  I. Kaliman,  T. Kus,  A. Landau,  
 Jie Liu,  E. I. Proynov,  R. M. Richard,  R. P. Steele,  E. J. Sundstrom,  
 H. L. Woodcock III,  P. M. Zimmerman,  D. Zuev,  B. Albrecht,  E. Alguire,  
 S. A. Baeppler,  D. Barton,  Z. Benda,  Y. A. Bernard,  E. J. Berquist,  
 K. B. Bravaya,  H. Burton,  D. Casanova,  Chun-Min Chang,  Yunqing Chen,  
 A. Chien,  K. D. Closser,  M. P. Coons,  S. Coriani,  S. Dasgupta,  
 A. L. Dempwolff,  M. Diedenhofen,  Hainam Do,  R. G. Edgar,  Po-Tung Fang,  
 S. Faraji,  S. Fatehi,  Qingguo Feng,  K. D. Fenk,  J. Fosso-Tande,  
 J. Gayvert,  Qinghui Ge,  A. Ghysels,  G. Gidofalvi,  J. Gomes,  
 J. Gonthier,  A. Gunina,  D. Hait,  M. W. D. Hanson-Heine,  
 P. H. P. Harbach,  A. W. Hauser,  M. F. Herbst,  J. E. Herr,  
 E. G. Hohenstein,  Z. C. Holden,  Kerwin Hui,  B. C. Huynh,  T.-C. Jagau,  
 Hyunjun Ji,  B. Kaduk,  K. Khistyaev,  Jaehoon Kim,  P. Klunzinger,  K. Koh,  
 D. Kosenkov,  L. Koulias,  T. Kowalczyk,  C. M. Krauter,  A. Kunitsa,  
 Ka Un Lao,  A. Laurent,  K. V. Lawler,  Joonho Lee,  D. Lefrancois,  
 S. Lehtola,  D. S. Levine,  Yi-Pei Li,  You-Sheng Lin,  Fenglai Liu,  
 E. Livshits,  A. Luenser,  P. Manohar,  E. Mansoor,  S. F. Manzer,  
 Shan-Ping Mao,  Yuezhi Mao,  N. Mardirossian,  A. V. Marenich,  
 T. Markovich,  L. A. Martinez-Martinez,  S. A. Maurer,  N. J. Mayhall,  
 S. C. McKenzie,  J.-M. Mewes,  P. Morgante,  A. F. Morrison,  
 J. W. Mullinax,  K. Nanda,  T. S. Nguyen-Beck,  R. Olivares-Amaya,  
 J. A. Parkhill,  Zheng Pei,  T. M. Perrine,  F. Plasser,  P. Pokhilko,  
 S. Prager,  A. Prociuk,  E. Ramos,  D. R. Rehn,  F. Rob,  M. Scheurer,  
 M. Schneider,  N. Sergueev,  S. M. Sharada,  S. Sharma,  D. W. Small,  
 T. Stauch,  T. Stein,  Yu-Chuan Su,  A. J. W. Thom,  A. Tkatchenko,  
 T. Tsuchimochi,  N. M. Tubman,  L. Vogt,  M. L. Vidal,  O. Vydrov,  
 M. A. Watson,  J. Wenzel,  M. de Wergifosse,  T. A. Wesolowski,  A. White,  
 J. Witte,  A. Yamada,  Jun Yang,  K. Yao,  S. Yeganeh,  S. R. Yost,  
 Zhi-Qiang You,  A. Zech,  Igor Ying Zhang,  Xing Zhang,  Yan Zhao,  
 Ying Zhu,  B. R. Brooks,  G. K. L. Chan,  C. J. Cramer,  M. S. Gordon,  
 W. J. Hehre,  A. Klamt,  M. W. Schmidt,  C. D. Sherrill,  D. G. Truhlar,  
 A. Aspuru-Guzik,  R. Baer,  A. T. Bell,  N. A. Besley,  Jeng-Da Chai,  
 A. E. DePrince, III,  R. A. DiStasio Jr.,  A. Dreuw,  B. D. Dunietz,  
 T. R. Furlani,  Chao-Ping Hsu,  Yousung Jung,  Jing Kong,  D. S. Lambrecht,  
 WanZhen Liang,  C. Ochsenfeld,  V. A. Rassolov,  L. V. Slipchenko,  
 J. E. Subotnik,  T. Van Voorhis,  J. M. Herbert,  A. I. Krylov,  
 P. M. W. Gill,  M. Head-Gordon

 Contributors to earlier versions of Q-Chem not listed above: 
 R. D. Adamson,  B. Austin,  J. Baker,  G. J. O. Beran,  K. Brandhorst,  
 S. T. Brown,  E. F. C. Byrd,  A. K. Chakraborty,  C.-L. Cheng,  
 Siu Hung Chien,  D. M. Chipman,  D. L. Crittenden,  H. Dachsel,  
 R. J. Doerksen,  A. D. Dutoi,  L. Fusti-Molnar,  W. A. Goddard III,  
 A. Golubeva-Zadorozhnaya,  S. R. Gwaltney,  G. Hawkins,  A. Heyden,  
 S. Hirata,  G. Kedziora,  F. J. Keil,  C. Kelley,  Jihan Kim,  R. A. King,  
 R. Z. Khaliullin,  P. P. Korambath,  W. Kurlancheek,  A. M. Lee,  M. S. Lee,  
 S. V. Levchenko,  Ching Yeh Lin,  D. Liotard,  R. C. Lochan,  I. Lotan,  
 P. E. Maslen,  N. Nair,  D. P. O'Neill,  D. Neuhauser,  E. Neuscamman,  
 C. M. Oana,  R. Olson,  B. Peters,  R. Peverati,  P. A. Pieniazek,  
 Y. M. Rhee,  J. Ritchie,  M. A. Rohrdanz,  E. Rosta,  N. J. Russ,  
 H. F. Schaefer III,  N. E. Schultz,  N. Shenvi,  A. C. Simmonett,  A. Sodt,  
 D. Stuck,  K. S. Thanthiriwatte,  V. Vanovschi,  Tao Wang,  A. Warshel,  
 C. F. Williams,  Q. Wu,  X. Xu,  W. Zhang

 Please cite Q-Chem as follows:
 Y. Shao et al., Mol. Phys. 113, 184-215 (2015)
 DOI: 10.1080/00268976.2014.952696

 Q-Chem 5.2.1 for Intel X86 EM64T Linux

 Parts of Q-Chem use Armadillo 8.300.2 (Tropical Shenanigans).
 http://arma.sourceforge.net/

 Q-Chem begins on Tue Feb  8 16:42:53 2022  

Host: 
0

     Scratch files written to /gpfs/fs0/scratch/a/aspuru/rhickman/descriptor_computation/qchem361920//
 Jul1719 |scratch|qcdevops|jenkins|workspace|build_RNUM -1
Processing $rem in /scinet/niagara/software/commercial/qc52/config/preferences:
	 MEM_TOTAL  4000 
NAlpha2: 100
NElect   100
Mult     1

Checking the input file for inconsistencies... 	...done.

--------------------------------------------------------------
User input:
--------------------------------------------------------------
$molecule
0 1
C        -5.91018550260000    0.02036882860000    0.02114817720000
C        -4.82607018320000   -0.74741220710000   -0.00082751030000
C        -3.44127760870000   -0.30034660160000   -0.00259666760000
C        -3.06980576340000    1.04635127600000    0.00660843740000
C        -1.74299294800000    1.41276200480000    0.00344203850000
C        -0.72001775450000    0.45678518180000   -0.00785275780000
C         0.65499092340000    0.90394184320000   -0.01052553460000
C         1.75388868140000    0.13123010470000   -0.00279088470000
C         3.08290724620000    0.67735236680000   -0.00664969840000
C         4.18341637410000   -0.06684524110000    0.00352316730000
F         4.22238990170000   -1.39595844530000    0.01889631280000
F         5.42309165880000    0.41531455010000   -0.00016035030000
C        -1.09278309730000   -0.89143184930000   -0.01715485160000
C        -2.42034625740000   -1.25581096460000   -0.01499785130000
H        -6.89774764430000   -0.40789512780000    0.02043016230000
H        -5.86491091180000    1.09564641270000    0.04118199980000
H        -4.94932703990000   -1.82378864790000   -0.01885681610000
H        -3.82806771400000    1.81388737680000    0.01522741440000
H        -1.48106106180000    2.46172211110000    0.01022348580000
H         0.78701786890000    1.97957887540000   -0.01819798780000
H         1.68391039230000   -0.94619932990000    0.00768822380000
H         3.20953387880000    1.74892631740000   -0.01866588250000
H        -0.33626182260000   -1.66058562490000   -0.02758850680000
H        -2.68262078540000   -2.30467793600000   -0.02290222290000
$end

$rem
BASIS = 6-31G*
GUI = 2
METHOD = B3LYP
PRINT_ORBITALS false
MOLDEN_FORMAT false
--------------------------------------------------------------
 ----------------------------------------------------------------
             Standard Nuclear Orientation (Angstroms)
    I     Atom           X                Y                Z
 ----------------------------------------------------------------
    1      C       5.7617013311    -0.0325883320     0.0203037233
    2      C       4.6811553323     0.7402327530    -0.0007815925
    3      C       3.2943036852     0.2995968514    -0.0027235303
    4      C       2.9165907840    -1.0453714281     0.0053095837
    5      C       1.5880921518    -1.4056209989     0.0020344698
    6      C       0.5695603436    -0.4448996254    -0.0082077610
    7      C      -0.8075080857    -0.8856711326    -0.0110550790
    8      C      -1.9028085255    -0.1078781191    -0.0024230115
    9      C      -3.2343465829    -0.6478263474    -0.0065550580
   10      C      -4.3313902291     0.1014580892     0.0044893370
   11      F      -4.3641957359     1.4307230887     0.0210887004
   12      F      -5.5732892524    -0.3749429451     0.0005759577
   13      C       0.9485737587     0.9015818800    -0.0163366916
   14      C       2.2778131352     1.2597973067    -0.0140729686
   15      H       6.7512391978     0.3910908882     0.0198093452
   16      H       5.7114429518    -1.1076622968     0.0393586669
   17      H       4.8094005696     1.8160420163    -0.0178443823
   18      H       3.6712858269    -1.8164239095     0.0130942885
   19      H       1.3212986675    -2.4533606886     0.0078983386
   20      H      -0.9445241849    -1.9606767143    -0.0196918548
   21      H      -1.8278316311     0.9692050677     0.0090327016
   22      H      -3.3659443072    -1.7187899521    -0.0195327607
   23      H       0.1956265731     1.6742456109    -0.0259348879
   24      H       2.5449486379     2.3074433045    -0.0210599055
 ----------------------------------------------------------------
 Molecular Point Group                 C1    NOp =  1
 Largest Abelian Subgroup              C1    NOp =  1
 Nuclear Repulsion Energy =         759.65389557 hartrees
 There are       50 alpha and       50 beta electrons
 Requested basis set is 6-31G(d)
 There are 76 shells and 230 basis functions

 Total QAlloc Memory Limit   4000 MB
 Mega-Array Size       188 MB
 MEM_STATIC part       192 MB
 A cutoff of  1.0D-08 yielded   1718 shell pairs
 There are     16272 function pairs
 Smallest overlap matrix eigenvalue = 3.72E-04

 Scale SEOQF with 1.000000e-02/1.000000e-01/1.000000e+00

 Standard Electronic Orientation quadrupole field applied
 Nucleus-field energy     =     0.0000000114 hartrees
 Guess from superposition of atomic densities
 Warning:  Energy on first SCF cycle will be non-variational
 SAD guess density has 100.000000 electrons

 -----------------------------------------------------------------------
  General SCF calculation program by
  Eric Jon Sundstrom, Paul Horn, Yuezhi Mao, Dmitri Zuev, Alec White,
  David Stuck, Shaama M.S., Shane Yost, Joonho Lee, David Small,
  Daniel Levine, Susi Lehtola, Hugh Burton, Evgeny Epifanovsky,
  Bang C. Huynh
 -----------------------------------------------------------------------
 Exchange:     0.2000 Hartree-Fock + 0.0800 Slater + 0.7200 B88
 Correlation:  0.1900 VWN1RPA + 0.8100 LYP
 Using SG-1 standard quadrature grid
 A restricted SCF calculation will be
 performed using DIIS
 SCF converges when DIIS error is below 1.0e-05
 ---------------------------------------
  Cycle       Energy         DIIS error
 ---------------------------------------
    1    -666.0622432916      5.26e-02  
    2    -662.6703534784      5.92e-03  
    3    -662.4219973766      8.35e-03  
    4    -662.8972076037      1.81e-03  
    5    -662.9198813617      5.85e-04  
    6    -662.9215054440      3.51e-04  
    7    -662.9223545420      6.97e-05  
    8    -662.9223850992      2.64e-05  
    9    -662.9223896233      8.51e-06  Convergence criterion met
 ---------------------------------------
 SCF time:   CPU 29.01s  wall 29.00s 
 SCF   energy in the final basis set =     -662.9223896233
 Total energy in the final basis set =     -662.9223896233
 
 --------------------------------------------------------------
 
                    Orbital Energies (a.u.)
 --------------------------------------------------------------
 
 Alpha MOs
 -- Occupied --
-24.7414 -24.7373 -10.3568 -10.2042 -10.2001 -10.1975 -10.1952 -10.1933
-10.1905 -10.1888 -10.1887 -10.1880 -10.1876 -10.1802  -1.2843  -1.2252
 -0.8688  -0.8299  -0.7999  -0.7598  -0.7514  -0.7152  -0.6525  -0.6270
 -0.6069  -0.5878  -0.5679  -0.5553  -0.5347  -0.5185  -0.5011  -0.4797
 -0.4615  -0.4483  -0.4412  -0.4401  -0.4300  -0.4207  -0.4170  -0.4019
 -0.3890  -0.3845  -0.3628  -0.3477  -0.3384  -0.3365  -0.3018  -0.2555
 -0.2490  -0.1982
 -- Virtual --
 -0.0563   0.0001   0.0048   0.0646   0.0921   0.0994   0.1038   0.1116
  0.1206   0.1295   0.1519   0.1555   0.1844   0.1892   0.1929   0.2058
  0.2220   0.2398   0.2539   0.2951   0.3179   0.3198   0.3435   0.3453
  0.3803   0.4093   0.4435   0.4484   0.4860   0.4994   0.5119   0.5131
  0.5366   0.5376   0.5537   0.5564   0.5613   0.5728   0.5742   0.5860
  0.5925   0.5973   0.5995   0.6051   0.6096   0.6222   0.6284   0.6435
  0.6498   0.6558   0.6987   0.7129   0.7273   0.7429   0.7961   0.8013
  0.8213   0.8301   0.8409   0.8466   0.8649   0.8833   0.8862   0.8916
  0.8993   0.9371   0.9474   0.9659   0.9777   0.9852   0.9974   1.0268
  1.0371   1.0590   1.1105   1.1148   1.1437   1.1467   1.1598   1.1737
  1.1813   1.2046   1.2289   1.2471   1.2476   1.2805   1.2913   1.3298
  1.3350   1.3441   1.3646   1.3975   1.4003   1.4410   1.4473   1.4551
  1.4679   1.4815   1.5036   1.5076   1.5193   1.5395   1.6058   1.6115
  1.6564   1.6777   1.7147   1.7810   1.7847   1.7986   1.8084   1.8166
  1.8342   1.8355   1.8723   1.8781   1.9145   1.9464   1.9531   1.9769
  1.9875   1.9924   2.0010   2.0043   2.0085   2.0316   2.0518   2.0980
  2.1322   2.1375   2.1520   2.1537   2.1832   2.1969   2.2342   2.2548
  2.2857   2.2885   2.3215   2.3261   2.3725   2.3875   2.4247   2.4796
  2.5292   2.5492   2.5652   2.5697   2.6211   2.6248   2.6370   2.6850
  2.6867   2.7428   2.7959   2.8375   2.8763   2.9216   2.9472   2.9583
  3.0345   3.0959   3.1541   3.2148   3.2687   3.4690   4.0773   4.0898
  4.0944   4.1223   4.1382   4.1574   4.2083   4.2877   4.3334   4.4051
  4.5343   4.7528   4.7761   5.2367
 --------------------------------------------------------------
 
          Ground-State Mulliken Net Atomic Charges

     Atom                 Charge (a.u.)
  ----------------------------------------
      1 C                    -0.352989
      2 C                    -0.114029
      3 C                     0.180508
      4 C                    -0.185575
      5 C                    -0.197981
      6 C                     0.186039
      7 C                    -0.200527
      8 C                    -0.107671
      9 C                    -0.225845
     10 C                     0.532434
     11 F                    -0.238215
     12 F                    -0.245063
     13 C                    -0.181692
     14 C                    -0.200309
     15 H                     0.144680
     16 H                     0.142610
     17 H                     0.126951
     18 H                     0.127759
     19 H                     0.127154
     20 H                     0.122711
     21 H                     0.142295
     22 H                     0.159030
     23 H                     0.128773
     24 H                     0.128953
  ----------------------------------------
  Sum of atomic charges =     0.000000

 -----------------------------------------------------------------
                    Cartesian Multipole Moments
 -----------------------------------------------------------------
    Charge (ESU x 10^10)
                 0.0000
    Dipole Moment (Debye)
         X       0.7819      Y      -0.5359      Z      -0.0094
       Tot       0.9480
    Quadrupole Moments (Debye-Ang)
        XX     -80.0867     XY       2.0064     YY     -71.8256
        XZ       0.0684     YZ      -0.0657     ZZ     -83.6882
    Octopole Moments (Debye-Ang^2)
       XXX      -7.6396    XXY      -4.3764    XYY     -15.1976
       YYY       3.9324    XXZ       0.1917    XYZ      -0.3514
       YYZ      -0.0669    XZZ     -38.3457    YZZ       4.1025
       ZZZ       0.2330
    Hexadecapole Moments (Debye-Ang^3)
      XXXX   -5712.7445   XXXY      -8.1865   XXYY    -980.2691
      XYYY     -15.6955   YYYY    -458.2978   XXXZ       1.7305
      XXYZ      -1.4670   XYYZ      -0.0131   YYYZ      -0.0053
      XXZZ   -1017.5855   XYZZ     -16.3035   YYZZ    -101.9695
      XZZZ      -1.1367   YZZZ       0.2809   ZZZZ     -81.6739
 -----------------------------------------------------------------
Archival summary:
1\1\nia2015.scinet.local\SP\ProcedureUnspecified\6-31G*\21210\rhickman\TueFeb816:43:232022TueFeb816:43:232022\0\\#,ProcedureUnspecified,6-31G*,\\0,1\F\C,1,1.32977\C,2,1.32855,1,125.75\H,3,1.0791,2,117.331,1,179.991,0\F,2,1.33015,1,109.574,3,179.997,0\C,3,1.43686,2,123.591,1,-0.0242351,0\H,6,1.07975,3,116.055,2,-0.0851351,0\C,6,1.3434,3,122.546,2,179.861,0\H,8,1.08374,6,118.117,3,-0.10943,0\C,8,1.44589,6,126.87,3,179.987,0\C,10,1.39883,8,123.468,6,-1.01857,0\H,11,1.0789,10,120.021,8,-0.0409285,0\C,11,1.37666,10,120.802,8,-179.953,0\H,13,1.08119,11,119.386,10,179.966,0\C,13,1.39834,11,121.549,10,-0.0440363,0\C,15,1.39702,13,117.684,11,0.0468901,0\H,16,1.07896,15,119.929,13,179.935,0\C,16,1.37648,15,120.857,13,0.00335107,0\H,18,1.08119,16,119.457,15,179.969,0\C,15,1.45517,13,119.005,11,-179.995,0\H,20,1.08356,15,114.42,13,-0.536315,0\C,20,1.32864,15,126.797,13,179.411,0\H,22,1.07642,20,122.905,15,-0.0350606,0\H,22,1.07642,20,121.244,15,-179.998,0\\\@

 Total job time:  29.30s(wall), 29.20s(cpu) 
 Tue Feb  8 16:43:23 2022

        *************************************************************
        *                                                           *
        *  Thank you very much for using Q-Chem.  Have a nice day.  *
        *                                                           *
        *************************************************************


