48
 energy: -55.802602030963 gnorm: 0.000050478735 xtb: 6.4.1 (23d549d)
C         4.81875300080000   -0.77269765800000    1.06055017260000
C         3.66597369540000   -0.22208200570000    1.41789009840000
C         2.49784440580000   -0.05748572780000    0.57290642800000
C         1.21468443230000   -0.10189313980000    1.05555840110000
N         0.31163825730000   -0.02906797320000    0.03306851960000
Si       -1.46133439110000   -0.04586387560000    0.10066342770000
C        -1.93199965270000   -0.14370417760000    1.96306956260000
C        -1.65263081030000    1.16292123710000    2.70742623240000
C        -3.39370757380000   -0.53088353140000    2.18026514600000
C        -2.08238395900000    1.59183933950000   -0.71297067000000
C        -1.12495068920000    2.75470022870000   -0.44184152720000
C        -2.29773854630000    1.47890400020000   -2.22307534440000
C        -1.91550360460000   -1.61291845650000   -0.92381119640000
C        -1.24268749840000   -2.85874343970000   -0.34512259570000
C        -3.41190399900000   -1.86950278390000   -1.09582105770000
C         1.03721431480000    0.06754613980000   -1.12155864640000
C         2.38156262330000    0.07048813200000   -0.85270031200000
C         3.39290835980000    0.27063040740000   -1.87414503550000
C         4.56084140210000    0.87704942220000   -1.70765732660000
H         5.62759981070000   -0.89017765000000    1.76201771340000
H         4.99422944980000   -1.12640053660000    0.05935713680000
H         3.51801910860000    0.08816562450000    2.44654618510000
H         0.89090861440000   -0.22124408880000    2.06959035490000
H        -1.32003328260000   -0.92553111090000    2.42464252400000
H        -2.31914872960000    1.94760361390000    2.35760267330000
H        -0.62666677230000    1.49192304000000    2.56549616250000
H        -1.82259734770000    1.03157432570000    3.77564798690000
H        -4.05935554960000    0.14966847810000    1.65474945400000
H        -3.63950320250000   -0.49206094060000    3.24078014610000
H        -3.58737298500000   -1.54011087750000    1.83062143150000
H        -3.04987102180000    1.84813007050000   -0.26734605030000
H        -0.15040452410000    2.55438045350000   -0.88092376110000
H        -0.98744346410000    2.91989395700000    0.62205798780000
H        -1.51347176800000    3.67230251620000   -0.88150814710000
H        -1.35971405020000    1.26849605900000   -2.73021411380000
H        -2.68434410060000    2.41800556670000   -2.61692751400000
H        -3.00439872060000    0.69265502240000   -2.47115027990000
H        -1.49887638990000   -1.45941601220000   -1.92546804220000
H        -1.62143566480000   -3.07327498790000    0.65163928690000
H        -0.16613566830000   -2.72257526040000   -0.27978136470000
H        -1.44001127000000   -3.72453518210000   -0.97536902320000
H        -3.85738899740000   -2.20338712190000   -0.16353834310000
H        -3.57717855540000   -2.64773722120000   -1.83970257750000
H        -3.93808552240000   -0.97483307200000   -1.41698653890000
H         0.54585801580000    0.14874418800000   -2.07084116390000
H         3.09887873660000   -0.06203960970000   -2.86373975830000
H         4.87424413610000    1.25345942270000   -0.74928787000000
H         5.24369040730000    1.01893506050000   -2.52844079750000
