36
 energy: -61.854289864483 gnorm: 0.000054538399 xtb: 6.4.1 (23d549d)
F         5.64670477860000   -0.31048412640000    0.11600351480000
C         4.31380665730000   -0.29562710380000    0.06183911360000
F         3.90705933440000    0.96327818560000   -0.07282245650000
C         3.57476357070000   -1.39309346400000    0.12988097890000
C         2.12758573910000   -1.51718696100000    0.07896001430000
C         1.58848638470000   -2.81599295210000    0.05990222170000
C         0.23027599860000   -3.03697521960000    0.02391255040000
C         1.27969189260000   -0.41217251960000    0.05412667220000
C        -0.08566110850000   -0.63364886970000   -0.00475639240000
C        -0.62530264560000   -1.94249116690000   -0.00593868310000
C        -2.05101382900000   -1.79624732080000   -0.02615334120000
C        -3.10510976220000   -2.70139793130000   -0.05262494370000
C        -4.39461822910000   -2.21224231220000   -0.09125010460000
C        -4.64050246240000   -0.84043665350000   -0.11822026230000
C        -3.61000340700000    0.07907828830000   -0.09238664280000
C        -2.31099889770000   -0.40554698910000   -0.03009969630000
N        -1.11530834390000    0.28326766030000   -0.01725448800000
C        -0.97069266510000    1.67989693790000   -0.01238105650000
C        -0.13629252060000    2.29964862580000   -0.93745051950000
C         0.00804106150000    3.67460403660000   -0.92256085200000
C        -0.68348510420000    4.43971477050000    0.00176064530000
C        -1.51887026070000    3.82415625100000    0.91899026140000
C        -1.66084390390000    2.44880631160000    0.91956534350000
H         4.13423953790000   -2.31249753150000    0.22653094460000
H         2.26448979120000   -3.65783363970000    0.07943846120000
H        -0.16567553740000   -4.04101433270000    0.02278203040000
H         1.66708524120000    0.59186386300000    0.09535551940000
H        -2.91300447460000   -3.76365911050000   -0.04721880320000
H        -5.22870689230000   -2.89766261710000   -0.11015816990000
H        -5.66048581680000   -0.48840301860000   -0.16417865000000
H        -3.81016199170000    1.13914897360000   -0.13102684770000
H         0.38530732660000    1.70213631460000   -1.66988972810000
H         0.65888736540000    4.15033603400000   -1.64069343640000
H        -0.57115267880000    5.51328626940000    0.00790834990000
H        -2.05644761660000    4.41669777000000    1.64437845920000
H        -2.29316546970000    1.96260430740000    1.64749959120000
