
Running Job 1 of 1 fragments/C136/conf-1/spe_input.inp
qchem fragments/C136/conf-1/spe_input.inp_266993.0 /gpfs/fs0/scratch/a/aspuru/rhickman/descriptor_computation/qchem266993/ 0
/scinet/niagara/software/commercial/qc52/exe/qcprog.exe_s fragments/C136/conf-1/spe_input.inp_266993.0 /gpfs/fs0/scratch/a/aspuru/rhickman/descriptor_computation/qchem266993/
                  Welcome to Q-Chem
     A Quantum Leap Into The Future Of Chemistry


 Q-Chem 5.2, Q-Chem, Inc., Pleasanton, CA (2019)

 License issued to: SRG Alan Aspuru-Guzik, University of Toronto

 Yihan Shao,  Zhengting Gan,  E. Epifanovsky,  A. T. B. Gilbert,  M. Wormit,  
 J. Kussmann,  A. W. Lange,  A. Behn,  Jia Deng,  Xintian Feng,  D. Ghosh,  
 M. Goldey,  P. R. Horn,  L. D. Jacobson,  I. Kaliman,  T. Kus,  A. Landau,  
 Jie Liu,  E. I. Proynov,  R. M. Richard,  R. P. Steele,  E. J. Sundstrom,  
 H. L. Woodcock III,  P. M. Zimmerman,  D. Zuev,  B. Albrecht,  E. Alguire,  
 S. A. Baeppler,  D. Barton,  Z. Benda,  Y. A. Bernard,  E. J. Berquist,  
 K. B. Bravaya,  H. Burton,  D. Casanova,  Chun-Min Chang,  Yunqing Chen,  
 A. Chien,  K. D. Closser,  M. P. Coons,  S. Coriani,  S. Dasgupta,  
 A. L. Dempwolff,  M. Diedenhofen,  Hainam Do,  R. G. Edgar,  Po-Tung Fang,  
 S. Faraji,  S. Fatehi,  Qingguo Feng,  K. D. Fenk,  J. Fosso-Tande,  
 J. Gayvert,  Qinghui Ge,  A. Ghysels,  G. Gidofalvi,  J. Gomes,  
 J. Gonthier,  A. Gunina,  D. Hait,  M. W. D. Hanson-Heine,  
 P. H. P. Harbach,  A. W. Hauser,  M. F. Herbst,  J. E. Herr,  
 E. G. Hohenstein,  Z. C. Holden,  Kerwin Hui,  B. C. Huynh,  T.-C. Jagau,  
 Hyunjun Ji,  B. Kaduk,  K. Khistyaev,  Jaehoon Kim,  P. Klunzinger,  K. Koh,  
 D. Kosenkov,  L. Koulias,  T. Kowalczyk,  C. M. Krauter,  A. Kunitsa,  
 Ka Un Lao,  A. Laurent,  K. V. Lawler,  Joonho Lee,  D. Lefrancois,  
 S. Lehtola,  D. S. Levine,  Yi-Pei Li,  You-Sheng Lin,  Fenglai Liu,  
 E. Livshits,  A. Luenser,  P. Manohar,  E. Mansoor,  S. F. Manzer,  
 Shan-Ping Mao,  Yuezhi Mao,  N. Mardirossian,  A. V. Marenich,  
 T. Markovich,  L. A. Martinez-Martinez,  S. A. Maurer,  N. J. Mayhall,  
 S. C. McKenzie,  J.-M. Mewes,  P. Morgante,  A. F. Morrison,  
 J. W. Mullinax,  K. Nanda,  T. S. Nguyen-Beck,  R. Olivares-Amaya,  
 J. A. Parkhill,  Zheng Pei,  T. M. Perrine,  F. Plasser,  P. Pokhilko,  
 S. Prager,  A. Prociuk,  E. Ramos,  D. R. Rehn,  F. Rob,  M. Scheurer,  
 M. Schneider,  N. Sergueev,  S. M. Sharada,  S. Sharma,  D. W. Small,  
 T. Stauch,  T. Stein,  Yu-Chuan Su,  A. J. W. Thom,  A. Tkatchenko,  
 T. Tsuchimochi,  N. M. Tubman,  L. Vogt,  M. L. Vidal,  O. Vydrov,  
 M. A. Watson,  J. Wenzel,  M. de Wergifosse,  T. A. Wesolowski,  A. White,  
 J. Witte,  A. Yamada,  Jun Yang,  K. Yao,  S. Yeganeh,  S. R. Yost,  
 Zhi-Qiang You,  A. Zech,  Igor Ying Zhang,  Xing Zhang,  Yan Zhao,  
 Ying Zhu,  B. R. Brooks,  G. K. L. Chan,  C. J. Cramer,  M. S. Gordon,  
 W. J. Hehre,  A. Klamt,  M. W. Schmidt,  C. D. Sherrill,  D. G. Truhlar,  
 A. Aspuru-Guzik,  R. Baer,  A. T. Bell,  N. A. Besley,  Jeng-Da Chai,  
 A. E. DePrince, III,  R. A. DiStasio Jr.,  A. Dreuw,  B. D. Dunietz,  
 T. R. Furlani,  Chao-Ping Hsu,  Yousung Jung,  Jing Kong,  D. S. Lambrecht,  
 WanZhen Liang,  C. Ochsenfeld,  V. A. Rassolov,  L. V. Slipchenko,  
 J. E. Subotnik,  T. Van Voorhis,  J. M. Herbert,  A. I. Krylov,  
 P. M. W. Gill,  M. Head-Gordon

 Contributors to earlier versions of Q-Chem not listed above: 
 R. D. Adamson,  B. Austin,  J. Baker,  G. J. O. Beran,  K. Brandhorst,  
 S. T. Brown,  E. F. C. Byrd,  A. K. Chakraborty,  C.-L. Cheng,  
 Siu Hung Chien,  D. M. Chipman,  D. L. Crittenden,  H. Dachsel,  
 R. J. Doerksen,  A. D. Dutoi,  L. Fusti-Molnar,  W. A. Goddard III,  
 A. Golubeva-Zadorozhnaya,  S. R. Gwaltney,  G. Hawkins,  A. Heyden,  
 S. Hirata,  G. Kedziora,  F. J. Keil,  C. Kelley,  Jihan Kim,  R. A. King,  
 R. Z. Khaliullin,  P. P. Korambath,  W. Kurlancheek,  A. M. Lee,  M. S. Lee,  
 S. V. Levchenko,  Ching Yeh Lin,  D. Liotard,  R. C. Lochan,  I. Lotan,  
 P. E. Maslen,  N. Nair,  D. P. O'Neill,  D. Neuhauser,  E. Neuscamman,  
 C. M. Oana,  R. Olson,  B. Peters,  R. Peverati,  P. A. Pieniazek,  
 Y. M. Rhee,  J. Ritchie,  M. A. Rohrdanz,  E. Rosta,  N. J. Russ,  
 H. F. Schaefer III,  N. E. Schultz,  N. Shenvi,  A. C. Simmonett,  A. Sodt,  
 D. Stuck,  K. S. Thanthiriwatte,  V. Vanovschi,  Tao Wang,  A. Warshel,  
 C. F. Williams,  Q. Wu,  X. Xu,  W. Zhang

 Please cite Q-Chem as follows:
 Y. Shao et al., Mol. Phys. 113, 184-215 (2015)
 DOI: 10.1080/00268976.2014.952696

 Q-Chem 5.2.1 for Intel X86 EM64T Linux

 Parts of Q-Chem use Armadillo 8.300.2 (Tropical Shenanigans).
 http://arma.sourceforge.net/

 Q-Chem begins on Mon Feb  7 09:36:27 2022  

Host: 
0

     Scratch files written to /gpfs/fs0/scratch/a/aspuru/rhickman/descriptor_computation/qchem266993//
 Jul1719 |scratch|qcdevops|jenkins|workspace|build_RNUM -1
Processing $rem in /scinet/niagara/software/commercial/qc52/config/preferences:
	 MEM_TOTAL  4000 
NAlpha2: 102
NElect   102
Mult     1

Checking the input file for inconsistencies... 	...done.

--------------------------------------------------------------
User input:
--------------------------------------------------------------
$molecule
0 1
C        -4.00006439640000    0.54705200120000   -0.02887812020000
C        -3.07146535340000   -0.39882419040000    0.05691316150000
C        -1.62354733940000   -0.23645578840000    0.04018235990000
C        -0.81716318920000   -1.37533771360000    0.07349318200000
C         0.56705974640000   -1.33837198670000    0.06080500950000
C         1.37551337720000   -2.55331054500000    0.10558940540000
C         0.96688737710000   -3.77165550110000   -0.22508479520000
C         1.23187033270000   -0.08941634260000    0.02682269080000
O         2.58273528590000   -0.13349850390000    0.01663736330000
C         3.34656141340000    1.05496123510000    0.00046256630000
C         0.43739752880000    1.05444310210000   -0.00509226680000
F         0.97676529550000    2.29842415910000   -0.04139722610000
C        -0.95077815470000    0.98291770970000   -0.00068732520000
F        -1.61078026350000    2.15467707580000   -0.02835870780000
H        -5.04554927770000    0.28978576240000   -0.00659284940000
H        -3.77421978000000    1.59313780140000   -0.12421312700000
H        -3.38466680960000   -1.43199834800000    0.14590266870000
H        -1.30243851310000   -2.33720676540000    0.12525302530000
H         2.39764049090000   -2.39932900270000    0.42061666760000
H        -0.02734929510000   -3.97616299600000   -0.58424837920000
H         1.62892345660000   -4.61752699620000   -0.16053637960000
H         4.38437290970000    0.72473117690000    0.00943550580000
H         3.15534828360000    1.67182090060000    0.88165698240000
H         3.16221766880000    1.64202783650000   -0.90213163710000
$end

$rem
BASIS = 6-31G*
GUI = 2
METHOD = B3LYP
PRINT_ORBITALS false
MOLDEN_FORMAT false
--------------------------------------------------------------
 ----------------------------------------------------------------
             Standard Nuclear Orientation (Angstroms)
    I     Atom           X                Y                Z
 ----------------------------------------------------------------
    1      C       4.0350026483     0.4068828822    -0.0314022640
    2      C       2.9001366247     1.0910106916     0.0601747278
    3      C       1.5383156311     0.5731021647     0.0421655064
    4      C       0.4736477436     1.4749183992     0.0824993215
    5      C      -0.8577265194     1.0943007271     0.0693330913
    6      C      -1.9433327669     2.0691873500     0.1216184964
    7      C      -1.8516169120     3.3529282067    -0.2013097956
    8      C      -1.1904294905    -0.2806779206     0.0273739912
    9      O      -2.5096881106    -0.5745092007     0.0172264971
   10      C      -2.9533320553    -1.9156813265    -0.0065623189
   11      C      -0.1360551450    -1.1902910242    -0.0115974239
   12      F      -0.3485142551    -2.5291821727    -0.0558255492
   13      C       1.1905248010    -0.7751685883    -0.0064960810
   14      F       2.1216268601    -1.7453322528    -0.0414234421
   15      H       4.9834457127     0.9163891588    -0.0073129375
   16      H       4.0767889816    -0.6618775797    -0.1333582991
   17      H       2.9461602321     2.1690719705     0.1557196437
   18      H       0.7040326059     2.5270276861     0.1403971429
   19      H      -2.8944180969     1.6634555955     0.4354891168
   20      H      -0.9401929983     3.8009131116    -0.5590028628
   21      H      -2.7034395432     4.0067551270    -0.1315572475
   22      H      -4.0406798628    -1.8545113301     0.0043043170
   23      H      -2.6132233835    -2.4708404376     0.8707667868
   24      H      -2.6297895636    -2.4327492379    -0.9128002224
 ----------------------------------------------------------------
 Molecular Point Group                 C1    NOp =  1
 Largest Abelian Subgroup              C1    NOp =  1
 Nuclear Repulsion Energy =         876.46802683 hartrees
 There are       51 alpha and       51 beta electrons
 Requested basis set is 6-31G(d)
 There are 76 shells and 230 basis functions

 Total QAlloc Memory Limit   4000 MB
 Mega-Array Size       188 MB
 MEM_STATIC part       192 MB
 A cutoff of  1.0D-08 yielded   1871 shell pairs
 There are     19136 function pairs
 Smallest overlap matrix eigenvalue = 3.02E-04

 Scale SEOQF with 1.000000e-01/1.000000e-01/1.000000e+00

 Standard Electronic Orientation quadrupole field applied
 Nucleus-field energy     =     0.0000000358 hartrees
 Guess from superposition of atomic densities
 Warning:  Energy on first SCF cycle will be non-variational
 SAD guess density has 102.000000 electrons

 -----------------------------------------------------------------------
  General SCF calculation program by
  Eric Jon Sundstrom, Paul Horn, Yuezhi Mao, Dmitri Zuev, Alec White,
  David Stuck, Shaama M.S., Shane Yost, Joonho Lee, David Small,
  Daniel Levine, Susi Lehtola, Hugh Burton, Evgeny Epifanovsky,
  Bang C. Huynh
 -----------------------------------------------------------------------
 Exchange:     0.2000 Hartree-Fock + 0.0800 Slater + 0.7200 B88
 Correlation:  0.1900 VWN1RPA + 0.8100 LYP
 Using SG-1 standard quadrature grid
 A restricted SCF calculation will be
 performed using DIIS
 SCF converges when DIIS error is below 1.0e-05
 ---------------------------------------
  Cycle       Energy         DIIS error
 ---------------------------------------
    1    -703.0694081616      5.23e-02  
    2    -699.8289473390      5.30e-03  
    3    -699.6953497925      6.80e-03  
    4    -700.0011396150      1.59e-03  
    5    -700.0193606744      3.43e-04  
    6    -700.0199444599      1.79e-04  
    7    -700.0201484912      4.60e-05  
    8    -700.0201614598      1.94e-05  
    9    -700.0201635285      2.61e-06  Convergence criterion met
 ---------------------------------------
 SCF time:   CPU 38.90s  wall 39.00s 
 SCF   energy in the final basis set =     -700.0201635285
 Total energy in the final basis set =     -700.0201635285
 
 --------------------------------------------------------------
 
                    Orbital Energies (a.u.)
 --------------------------------------------------------------
 
 Alpha MOs
 -- Occupied --
-24.7179 -24.7167 -19.1940 -10.2806 -10.2793 -10.2667 -10.2438 -10.2053
-10.2021 -10.1968 -10.1941 -10.1892 -10.1795 -10.1773  -1.2366  -1.2201
 -1.0837  -0.8796  -0.8103  -0.7893  -0.7514  -0.7345  -0.7021  -0.6480
 -0.6280  -0.5983  -0.5618  -0.5562  -0.5370  -0.5215  -0.4975  -0.4950
 -0.4721  -0.4706  -0.4537  -0.4511  -0.4452  -0.4342  -0.4202  -0.4038
 -0.3998  -0.3881  -0.3787  -0.3615  -0.3494  -0.3434  -0.3284  -0.3040
 -0.2714  -0.2318  -0.2097
 -- Virtual --
 -0.0352  -0.0219   0.0404   0.0578   0.0821   0.1041   0.1157   0.1264
  0.1368   0.1399   0.1536   0.1642   0.1667   0.1958   0.1994   0.2066
  0.2105   0.2301   0.2662   0.2941   0.3134   0.3246   0.3581   0.3679
  0.3862   0.3997   0.4110   0.4778   0.4794   0.4909   0.4956   0.5260
  0.5305   0.5344   0.5431   0.5484   0.5614   0.5653   0.5806   0.5954
  0.6052   0.6129   0.6206   0.6251   0.6495   0.6616   0.6746   0.6847
  0.7008   0.7042   0.7246   0.7324   0.7615   0.8241   0.8259   0.8386
  0.8530   0.8577   0.8619   0.8708   0.8891   0.9021   0.9061   0.9304
  0.9374   0.9500   0.9702   0.9805   1.0089   1.0129   1.0311   1.0431
  1.0704   1.1006   1.1190   1.1599   1.1807   1.1890   1.2029   1.2082
  1.2192   1.2709   1.2748   1.2894   1.3021   1.3303   1.3351   1.3704
  1.3910   1.4124   1.4150   1.4368   1.4576   1.4809   1.4994   1.5050
  1.5233   1.5434   1.5661   1.5683   1.6616   1.6682   1.6779   1.7387
  1.7479   1.7605   1.7919   1.7976   1.8010   1.8208   1.8253   1.8373
  1.8625   1.8745   1.8905   1.9327   1.9482   1.9628   1.9770   2.0095
  2.0257   2.0458   2.0683   2.0726   2.0907   2.1263   2.1342   2.1415
  2.1569   2.1734   2.2079   2.2211   2.2526   2.2759   2.2839   2.3097
  2.3259   2.3378   2.3657   2.3789   2.3858   2.4221   2.4275   2.4678
  2.4837   2.5588   2.5871   2.6059   2.6406   2.6486   2.6829   2.6876
  2.7302   2.7576   2.7884   2.8392   2.9148   2.9431   2.9982   3.0227
  3.0833   3.1571   3.1809   3.3877   3.4856   4.0286   4.0649   4.0886
  4.1341   4.1461   4.2035   4.2623   4.2806   4.4068   4.4628   4.5113
  4.7737   5.0644   6.3947
 --------------------------------------------------------------
 
          Ground-State Mulliken Net Atomic Charges

     Atom                 Charge (a.u.)
  ----------------------------------------
      1 C                    -0.360940
      2 C                    -0.109673
      3 C                     0.135758
      4 C                    -0.296593
      5 C                     0.111384
      6 C                    -0.101964
      7 C                    -0.346659
      8 C                     0.260100
      9 O                    -0.507878
     10 C                    -0.216121
     11 C                     0.271500
     12 F                    -0.293864
     13 C                     0.234965
     14 F                    -0.278228
     15 H                     0.140117
     16 H                     0.160225
     17 H                     0.130370
     18 H                     0.137953
     19 H                     0.150620
     20 H                     0.140575
     21 H                     0.144600
     22 H                     0.165035
     23 H                     0.163835
     24 H                     0.164884
  ----------------------------------------
  Sum of atomic charges =     0.000000

 -----------------------------------------------------------------
                    Cartesian Multipole Moments
 -----------------------------------------------------------------
    Charge (ESU x 10^10)
                 0.0000
    Dipole Moment (Debye)
         X      -1.2285      Y       0.3532      Z       0.0722
       Tot       1.2803
    Quadrupole Moments (Debye-Ang)
        XX     -72.8580     XY       6.3635     YY     -75.0082
        XZ      -0.6006     YZ      -0.1721     ZZ     -81.7995
    Octopole Moments (Debye-Ang^2)
       XXX      -7.9432    XXY     -19.3424    XYY     -10.9740
       YYY     -20.0696    XXZ       1.6092    XYZ       0.0056
       YYZ      -2.1890    XZZ      -3.1304    YZZ     -20.0694
       ZZZ      -0.9022
    Hexadecapole Moments (Debye-Ang^3)
      XXXX   -2085.0696   XXXY      38.7836   XXYY    -551.2720
      XYYY       5.7908   YYYY   -1375.2435   XXXZ     -10.2307
      XXYZ       7.8104   XYYZ       1.6540   YYYZ     -10.3985
      XXZZ    -416.1145   XYZZ       0.4958   YYZZ    -261.7546
      XZZZ      -1.7683   YZZZ       2.3123   ZZZZ     -89.6436
 -----------------------------------------------------------------
Archival summary:
1\1\nia0231.scinet.local\SP\ProcedureUnspecified\6-31G*\211110\rhickman\MonFeb709:37:072022MonFeb709:37:072022\0\\#,ProcedureUnspecified,6-31G*,\\0,1\F\C,1,1.35636\C,2,1.39002,1,116.385\F,3,1.34514,2,116.431,1,-0.21545,0\C,2,1.39306,1,121.797,3,-179.964,0\O,5,1.35162,2,126.626,1,-0.523415,0\C,3,1.39326,2,121.827,1,-179.756,0\C,7,1.39586,3,115.837,2,-0.124226,0\H,8,1.07859,7,117.959,3,178.817,0\C,8,1.38477,7,123.743,3,-0.339598,0\C,6,1.41284,5,120.862,2,1.45085,0\H,11,1.08912,6,105.071,5,179.223,0\H,11,1.09239,6,111.734,5,-62.3604,0\H,11,1.09251,6,111.783,5,60.7254,0\C,7,1.45709,3,125.289,2,179.554,0\H,15,1.08327,7,113.237,3,-176.748,0\C,15,1.32828,7,127.923,3,3.61759,0\H,17,1.07443,15,123.511,7,-0.0705224,0\H,17,1.0769,15,120.481,7,179.836,0\C,10,1.46003,8,122.074,7,179.592,0\H,20,1.0806,10,114.464,8,-160.431,0\C,20,1.32691,10,125.866,8,20.9813,0\H,22,1.07608,20,121.154,10,-179.834,0\H,22,1.07672,20,122.812,10,1.10767,0\\\@

 Total job time:  39.57s(wall), 39.10s(cpu) 
 Mon Feb  7 09:37:07 2022

        *************************************************************
        *                                                           *
        *  Thank you very much for using Q-Chem.  Have a nice day.  *
        *                                                           *
        *************************************************************


