
Running Job 1 of 1 fragments/A032/conf-1/spe_input.inp
qchem fragments/A032/conf-1/spe_input.inp_41021.0 /gpfs/fs0/scratch/a/aspuru/rhickman/descriptor_computation/qchem41021/ 0
/scinet/niagara/software/commercial/qc52/exe/qcprog.exe_s fragments/A032/conf-1/spe_input.inp_41021.0 /gpfs/fs0/scratch/a/aspuru/rhickman/descriptor_computation/qchem41021/
                  Welcome to Q-Chem
     A Quantum Leap Into The Future Of Chemistry


 Q-Chem 5.2, Q-Chem, Inc., Pleasanton, CA (2019)

 License issued to: SRG Alan Aspuru-Guzik, University of Toronto

 Yihan Shao,  Zhengting Gan,  E. Epifanovsky,  A. T. B. Gilbert,  M. Wormit,  
 J. Kussmann,  A. W. Lange,  A. Behn,  Jia Deng,  Xintian Feng,  D. Ghosh,  
 M. Goldey,  P. R. Horn,  L. D. Jacobson,  I. Kaliman,  T. Kus,  A. Landau,  
 Jie Liu,  E. I. Proynov,  R. M. Richard,  R. P. Steele,  E. J. Sundstrom,  
 H. L. Woodcock III,  P. M. Zimmerman,  D. Zuev,  B. Albrecht,  E. Alguire,  
 S. A. Baeppler,  D. Barton,  Z. Benda,  Y. A. Bernard,  E. J. Berquist,  
 K. B. Bravaya,  H. Burton,  D. Casanova,  Chun-Min Chang,  Yunqing Chen,  
 A. Chien,  K. D. Closser,  M. P. Coons,  S. Coriani,  S. Dasgupta,  
 A. L. Dempwolff,  M. Diedenhofen,  Hainam Do,  R. G. Edgar,  Po-Tung Fang,  
 S. Faraji,  S. Fatehi,  Qingguo Feng,  K. D. Fenk,  J. Fosso-Tande,  
 J. Gayvert,  Qinghui Ge,  A. Ghysels,  G. Gidofalvi,  J. Gomes,  
 J. Gonthier,  A. Gunina,  D. Hait,  M. W. D. Hanson-Heine,  
 P. H. P. Harbach,  A. W. Hauser,  M. F. Herbst,  J. E. Herr,  
 E. G. Hohenstein,  Z. C. Holden,  Kerwin Hui,  B. C. Huynh,  T.-C. Jagau,  
 Hyunjun Ji,  B. Kaduk,  K. Khistyaev,  Jaehoon Kim,  P. Klunzinger,  K. Koh,  
 D. Kosenkov,  L. Koulias,  T. Kowalczyk,  C. M. Krauter,  A. Kunitsa,  
 Ka Un Lao,  A. Laurent,  K. V. Lawler,  Joonho Lee,  D. Lefrancois,  
 S. Lehtola,  D. S. Levine,  Yi-Pei Li,  You-Sheng Lin,  Fenglai Liu,  
 E. Livshits,  A. Luenser,  P. Manohar,  E. Mansoor,  S. F. Manzer,  
 Shan-Ping Mao,  Yuezhi Mao,  N. Mardirossian,  A. V. Marenich,  
 T. Markovich,  L. A. Martinez-Martinez,  S. A. Maurer,  N. J. Mayhall,  
 S. C. McKenzie,  J.-M. Mewes,  P. Morgante,  A. F. Morrison,  
 J. W. Mullinax,  K. Nanda,  T. S. Nguyen-Beck,  R. Olivares-Amaya,  
 J. A. Parkhill,  Zheng Pei,  T. M. Perrine,  F. Plasser,  P. Pokhilko,  
 S. Prager,  A. Prociuk,  E. Ramos,  D. R. Rehn,  F. Rob,  M. Scheurer,  
 M. Schneider,  N. Sergueev,  S. M. Sharada,  S. Sharma,  D. W. Small,  
 T. Stauch,  T. Stein,  Yu-Chuan Su,  A. J. W. Thom,  A. Tkatchenko,  
 T. Tsuchimochi,  N. M. Tubman,  L. Vogt,  M. L. Vidal,  O. Vydrov,  
 M. A. Watson,  J. Wenzel,  M. de Wergifosse,  T. A. Wesolowski,  A. White,  
 J. Witte,  A. Yamada,  Jun Yang,  K. Yao,  S. Yeganeh,  S. R. Yost,  
 Zhi-Qiang You,  A. Zech,  Igor Ying Zhang,  Xing Zhang,  Yan Zhao,  
 Ying Zhu,  B. R. Brooks,  G. K. L. Chan,  C. J. Cramer,  M. S. Gordon,  
 W. J. Hehre,  A. Klamt,  M. W. Schmidt,  C. D. Sherrill,  D. G. Truhlar,  
 A. Aspuru-Guzik,  R. Baer,  A. T. Bell,  N. A. Besley,  Jeng-Da Chai,  
 A. E. DePrince, III,  R. A. DiStasio Jr.,  A. Dreuw,  B. D. Dunietz,  
 T. R. Furlani,  Chao-Ping Hsu,  Yousung Jung,  Jing Kong,  D. S. Lambrecht,  
 WanZhen Liang,  C. Ochsenfeld,  V. A. Rassolov,  L. V. Slipchenko,  
 J. E. Subotnik,  T. Van Voorhis,  J. M. Herbert,  A. I. Krylov,  
 P. M. W. Gill,  M. Head-Gordon

 Contributors to earlier versions of Q-Chem not listed above: 
 R. D. Adamson,  B. Austin,  J. Baker,  G. J. O. Beran,  K. Brandhorst,  
 S. T. Brown,  E. F. C. Byrd,  A. K. Chakraborty,  C.-L. Cheng,  
 Siu Hung Chien,  D. M. Chipman,  D. L. Crittenden,  H. Dachsel,  
 R. J. Doerksen,  A. D. Dutoi,  L. Fusti-Molnar,  W. A. Goddard III,  
 A. Golubeva-Zadorozhnaya,  S. R. Gwaltney,  G. Hawkins,  A. Heyden,  
 S. Hirata,  G. Kedziora,  F. J. Keil,  C. Kelley,  Jihan Kim,  R. A. King,  
 R. Z. Khaliullin,  P. P. Korambath,  W. Kurlancheek,  A. M. Lee,  M. S. Lee,  
 S. V. Levchenko,  Ching Yeh Lin,  D. Liotard,  R. C. Lochan,  I. Lotan,  
 P. E. Maslen,  N. Nair,  D. P. O'Neill,  D. Neuhauser,  E. Neuscamman,  
 C. M. Oana,  R. Olson,  B. Peters,  R. Peverati,  P. A. Pieniazek,  
 Y. M. Rhee,  J. Ritchie,  M. A. Rohrdanz,  E. Rosta,  N. J. Russ,  
 H. F. Schaefer III,  N. E. Schultz,  N. Shenvi,  A. C. Simmonett,  A. Sodt,  
 D. Stuck,  K. S. Thanthiriwatte,  V. Vanovschi,  Tao Wang,  A. Warshel,  
 C. F. Williams,  Q. Wu,  X. Xu,  W. Zhang

 Please cite Q-Chem as follows:
 Y. Shao et al., Mol. Phys. 113, 184-215 (2015)
 DOI: 10.1080/00268976.2014.952696

 Q-Chem 5.2.1 for Intel X86 EM64T Linux

 Parts of Q-Chem use Armadillo 8.300.2 (Tropical Shenanigans).
 http://arma.sourceforge.net/

 Q-Chem begins on Mon Feb  7 13:20:45 2022  

Host: 
0

     Scratch files written to /gpfs/fs0/scratch/a/aspuru/rhickman/descriptor_computation/qchem41021//
 Jul1719 |scratch|qcdevops|jenkins|workspace|build_RNUM -1
Processing $rem in /scinet/niagara/software/commercial/qc52/config/preferences:
	 MEM_TOTAL  4000 
NAlpha2: 146
NElect   146
Mult     1

Checking the input file for inconsistencies... 	...done.

--------------------------------------------------------------
User input:
--------------------------------------------------------------
$molecule
0 1
C        -4.84052605510000    1.13145239110000   -1.26472301870000
C        -4.73240073360000    0.27140632380000   -0.00703349140000
C        -5.78330026680000   -0.83865027620000   -0.02129503710000
O        -3.46984227030000   -0.44778658580000   -0.00021675120000
C        -2.31422368730000    0.21086891910000    0.00991652140000
N        -1.25609248070000   -0.68765816350000    0.01042661470000
C        -1.35767329270000   -2.07134688880000    0.00762855450000
C        -0.12888069690000   -2.63289912380000    0.00403973850000
C         0.09190308630000   -0.36011233460000    0.00849397740000
C         0.82673034830000   -1.56616861280000    0.00387551880000
C         2.21332848010000   -1.53255198690000   -0.00073900760000
C         2.86411137280000   -0.30198540260000   -0.00060393220000
C         4.31857801740000   -0.30969473690000   -0.00689127540000
C         5.15790293840000    0.71512060780000   -0.00727058510000
F         4.87653193830000    2.01305753480000   -0.00148778520000
F         6.48358379460000    0.56536814780000   -0.01398312770000
C         2.10911169220000    0.88380823380000    0.00485974950000
C         0.72995844130000    0.87059974970000    0.00940714660000
O        -2.16026434530000    1.40365387350000    0.01717937970000
C        -4.86139207700000    1.11929449270000    1.25688937130000
H        -4.69435572930000    0.51839505360000   -2.15170263570000
H        -4.09045893770000    1.91737203460000   -1.25278041910000
H        -5.82578663210000    1.58641868430000   -1.31004500770000
H        -5.66065893550000   -1.45816321140000   -0.90588385090000
H        -6.77883348380000   -0.40572638790000   -0.02770901700000
H        -5.67573849560000   -1.46669531580000    0.85921552680000
H        -2.32549768330000   -2.53160036490000    0.00889112920000
H         0.09507898080000   -3.68107086270000    0.00167512360000
H         2.77881757070000   -2.45244062890000   -0.00481044250000
H         4.79153749640000   -1.28153926320000   -0.01234916060000
H         2.61288984020000    1.83558403630000    0.00532168140000
H         0.16404373070000    1.78700157550000    0.01339435390000
H        -5.84683311290000    1.57497548130000    1.28950164940000
H        -4.11041227230000    1.90439442190000    1.26549916220000
H        -4.73128287610000    0.49755273750000    2.14030099140000
$end

$rem
BASIS = 6-31G*
GUI = 2
METHOD = B3LYP
PRINT_ORBITALS false
MOLDEN_FORMAT false
--------------------------------------------------------------
 ----------------------------------------------------------------
             Standard Nuclear Orientation (Angstroms)
    I     Atom           X                Y                Z
 ----------------------------------------------------------------
    1      C      -4.6277231800    -1.3000866238     1.2647165248
    2      C      -4.5483382225    -0.4362421342     0.0074878279
    3      C      -5.6353513196     0.6384644084     0.0225626266
    4      O      -3.3102424921     0.3242929163     0.0008408856
    5      C      -2.1334868826    -0.2958002390    -0.0098726991
    6      N      -1.1056329600     0.6372105335    -0.0100752439
    7      C      -1.2528927362     2.0167838918    -0.0064854953
    8      C      -0.0433318259     2.6186426140    -0.0028087477
    9      C       0.2524527922     0.3543980738    -0.0085732893
   10      C       0.9470157100     1.5840809344    -0.0034160694
   11      C       2.3339682399     1.5963114819     0.0009248897
   12      C       3.0250693973     0.3879279282    -0.0000172452
   13      C       4.4784877474     0.4437041890     0.0060071471
   14      C       5.3512273224    -0.5528089675     0.0056596995
   15      F       5.1129095831    -1.8593334867    -0.0007965144
   16      F       6.6712353925    -0.3593242181     0.0122123105
   17      C       2.3096751720    -0.8221696591    -0.0060046613
   18      C       0.9308380184    -0.8545511550    -0.0102912605
   19      O      -1.9401880379    -1.4828404280    -0.0178302175
   20      C      -4.6494893088    -1.2872323957    -1.2568848028
   21      H      -4.5017168251    -0.6830228454     2.1520116257
   22      H      -3.8520913415    -2.0607780895     1.2521970346
   23      H      -5.5973982395    -1.7873951873     1.3099653712
   24      H      -5.5330749625     1.2612038707     0.9074748546
   25      H      -6.6160298370     0.1728681485     0.0289176725
   26      H      -5.5487850460     1.2702077325    -0.8576166804
   27      H      -2.2354012928     2.4447969276    -0.0073131039
   28      H       0.1458607545     3.6736427220     0.0001002951
   29      H       2.8687440985     2.5343862655     0.0054063289
   30      H       4.9190675378     1.4306473051     0.0119210646
   31      H       2.8446369788    -1.7567735856    -0.0070908891
   32      H       0.3955215398    -1.7891551427    -0.0146864459
   33      H      -5.6193368575    -1.7752181864    -1.2895705761
   34      H      -3.8729717022    -2.0470762686    -1.2660711946
   35      H      -4.5401801698    -0.6610420466    -2.1399728299
 ----------------------------------------------------------------
 Molecular Point Group                 C1    NOp =  1
 Largest Abelian Subgroup              C1    NOp =  1
 Nuclear Repulsion Energy =        1502.03281998 hartrees
 There are       73 alpha and       73 beta electrons
 Requested basis set is 6-31G(d)
 There are 110 shells and 330 basis functions

 Total QAlloc Memory Limit   4000 MB
 Mega-Array Size       188 MB
 MEM_STATIC part       192 MB
 A cutoff of  1.0D-08 yielded   3103 shell pairs
 There are     30004 function pairs
 Smallest overlap matrix eigenvalue = 3.22E-04

 Scale SEOQF with 1.000000e-02/1.000000e-01/1.000000e-01

 Standard Electronic Orientation quadrupole field applied
 Nucleus-field energy     =     0.0000000207 hartrees
 Guess from superposition of atomic densities
 Warning:  Energy on first SCF cycle will be non-variational
 SAD guess density has 146.000000 electrons

 -----------------------------------------------------------------------
  General SCF calculation program by
  Eric Jon Sundstrom, Paul Horn, Yuezhi Mao, Dmitri Zuev, Alec White,
  David Stuck, Shaama M.S., Shane Yost, Joonho Lee, David Small,
  Daniel Levine, Susi Lehtola, Hugh Burton, Evgeny Epifanovsky,
  Bang C. Huynh
 -----------------------------------------------------------------------
 Exchange:     0.2000 Hartree-Fock + 0.0800 Slater + 0.7200 B88
 Correlation:  0.1900 VWN1RPA + 0.8100 LYP
 Using SG-1 standard quadrature grid
 A restricted SCF calculation will be
 performed using DIIS
 SCF converges when DIIS error is below 1.0e-05
 ---------------------------------------
  Cycle       Energy         DIIS error
 ---------------------------------------
    1    -990.2468503375      4.51e-02  
    2    -985.1123831977      5.62e-03  
    3    -984.5823015369      8.81e-03  
    4    -985.4649080409      2.06e-03  
    5    -985.5134202802      5.45e-04  
    6    -985.5162900065      2.29e-04  
    7    -985.5169226274      5.34e-05  
    8    -985.5169553168      1.95e-05  
    9    -985.5169603562      6.16e-06  Convergence criterion met
 ---------------------------------------
 SCF time:   CPU 75.26s  wall 75.00s 
 SCF   energy in the final basis set =     -985.5169603562
 Total energy in the final basis set =     -985.5169603562
 
 --------------------------------------------------------------
 
                    Orbital Energies (a.u.)
 --------------------------------------------------------------
 
 Alpha MOs
 -- Occupied --
-24.7371 -24.7261 -19.2002 -19.1403 -14.3992 -10.3536 -10.3479 -10.2656
-10.2221 -10.2204 -10.1980 -10.1959 -10.1889 -10.1862 -10.1861 -10.1844
-10.1834 -10.1802 -10.1789 -10.1788  -1.2776  -1.2165  -1.1284  -1.0375
 -0.9958  -0.8612  -0.8296  -0.8026  -0.7901  -0.7411  -0.7245  -0.7059
 -0.7019  -0.6738  -0.6341  -0.6184  -0.6119  -0.5908  -0.5654  -0.5517
 -0.5232  -0.5162  -0.5113  -0.4962  -0.4834  -0.4804  -0.4715  -0.4606
 -0.4562  -0.4480  -0.4376  -0.4335  -0.4295  -0.4242  -0.4194  -0.4165
 -0.4065  -0.4016  -0.3909  -0.3903  -0.3774  -0.3718  -0.3655  -0.3614
 -0.3485  -0.3456  -0.3387  -0.3086  -0.2852  -0.2844  -0.2795  -0.2159
 -0.2072
 -- Virtual --
 -0.0244  -0.0141   0.0253   0.0778   0.0876   0.0919   0.0934   0.0991
  0.1303   0.1348   0.1425   0.1449   0.1522   0.1589   0.1613   0.1667
  0.1786   0.1833   0.1880   0.1916   0.1952   0.1989   0.1999   0.2084
  0.2172   0.2216   0.2247   0.2453   0.2495   0.2548   0.2738   0.3146
  0.3308   0.3476   0.3531   0.3660   0.3870   0.4340   0.4491   0.4726
  0.4758   0.4882   0.4954   0.4976   0.5033   0.5056   0.5128   0.5331
  0.5350   0.5465   0.5531   0.5538   0.5586   0.5612   0.5694   0.5807
  0.5855   0.5896   0.6052   0.6082   0.6150   0.6245   0.6286   0.6350
  0.6416   0.6607   0.6667   0.6681   0.6859   0.7062   0.7130   0.7136
  0.7491   0.7624   0.7789   0.7841   0.8060   0.8126   0.8171   0.8208
  0.8309   0.8432   0.8486   0.8522   0.8560   0.8789   0.8830   0.8897
  0.8987   0.9009   0.9134   0.9222   0.9347   0.9359   0.9416   0.9456
  0.9638   0.9736   0.9849   0.9883   0.9957   1.0277   1.0337   1.0359
  1.0668   1.0926   1.1218   1.1343   1.1456   1.1470   1.1518   1.1668
  1.1942   1.2051   1.2135   1.2204   1.2434   1.2657   1.2740   1.2808
  1.3118   1.3128   1.3407   1.3473   1.3546   1.3732   1.3748   1.3869
  1.4102   1.4241   1.4292   1.4331   1.4436   1.4706   1.4799   1.4932
  1.4950   1.5024   1.5055   1.5254   1.5624   1.5826   1.5895   1.6258
  1.6479   1.6624   1.7160   1.7230   1.7544   1.7602   1.7703   1.7824
  1.7866   1.7892   1.8042   1.8237   1.8392   1.8436   1.8438   1.8550
  1.8581   1.8620   1.8821   1.8876   1.8968   1.8973   1.9165   1.9427
  1.9606   1.9633   1.9790   2.0007   2.0132   2.0235   2.0282   2.0538
  2.0564   2.0665   2.0869   2.0961   2.1100   2.1162   2.1373   2.1623
  2.1676   2.1770   2.1891   2.2192   2.2267   2.2389   2.2411   2.2559
  2.2575   2.2621   2.2680   2.2712   2.2758   2.3187   2.3302   2.3419
  2.3424   2.3791   2.3929   2.4525   2.4647   2.5149   2.5157   2.5269
  2.5293   2.5480   2.5749   2.6039   2.6339   2.6459   2.6651   2.7031
  2.7202   2.7295   2.7509   2.7711   2.8040   2.8200   2.8401   2.8604
  2.8826   2.9044   2.9292   2.9644   3.0178   3.0507   3.0834   3.1284
  3.1591   3.2645   3.3155   3.4075   3.5153   4.0719   4.0872   4.1040
  4.1229   4.1340   4.1649   4.2180   4.2338   4.2968   4.3000   4.3085
  4.3587   4.4266   4.4571   4.5320   4.5790   4.6942   4.7601   4.8534
  5.3063
 --------------------------------------------------------------
 
          Ground-State Mulliken Net Atomic Charges

     Atom                 Charge (a.u.)
  ----------------------------------------
      1 C                    -0.469083
      2 C                     0.302642
      3 C                    -0.452515
      4 O                    -0.511508
      5 C                     0.827693
      6 N                    -0.613643
      7 C                     0.045433
      8 C                    -0.224399
      9 C                     0.306736
     10 C                     0.107578
     11 C                    -0.286408
     12 C                     0.199720
     13 C                    -0.292842
     14 C                     0.534626
     15 F                    -0.236043
     16 F                    -0.252901
     17 C                    -0.222632
     18 C                    -0.143042
     19 O                    -0.494041
     20 C                    -0.468919
     21 H                     0.150303
     22 H                     0.190326
     23 H                     0.148148
     24 H                     0.155445
     25 H                     0.152794
     26 H                     0.155353
     27 H                     0.174188
     28 H                     0.137903
     29 H                     0.125845
     30 H                     0.155140
     31 H                     0.137743
     32 H                     0.171734
     33 H                     0.148139
     34 H                     0.190248
     35 H                     0.150240
  ----------------------------------------
  Sum of atomic charges =     0.000000

 -----------------------------------------------------------------
                    Cartesian Multipole Moments
 -----------------------------------------------------------------
    Charge (ESU x 10^10)
                 0.0000
    Dipole Moment (Debye)
         X      -3.5833      Y       1.8801      Z       0.0224
       Tot       4.0466
    Quadrupole Moments (Debye-Ang)
        XX    -103.4499     XY       3.5390     YY    -109.8001
        XZ      -0.0441     YZ      -0.0238     ZZ    -115.4911
    Octopole Moments (Debye-Ang^2)
       XXX     -98.9342    XXY       6.0789    XYY      24.9467
       YYY      -1.0229    XXZ       0.1851    XYZ       0.2178
       YYZ       0.1028    XZZ      11.8117    YZZ     -11.8658
       ZZZ       0.0756
    Hexadecapole Moments (Debye-Ang^3)
      XXXX   -9107.3058   XXXY     109.1585   XXYY   -1688.7732
      XYYY     -72.5156   YYYY   -1130.0688   XXXZ      -1.0655
      XXYZ      -0.2014   XYYZ       0.3206   YYYZ       0.1814
      XXZZ   -1570.1314   XYZZ     -38.2313   YYZZ    -260.0065
      XZZZ       0.7066   YZZZ       0.1469   ZZZZ    -284.4613
 -----------------------------------------------------------------
Archival summary:
1\1\nia1977.scinet.local\SP\ProcedureUnspecified\6-31G*\2211515\rhickman\MonFeb713:22:002022MonFeb713:22:002022\0\\#,ProcedureUnspecified,6-31G*,\\0,1\O\C,1,1.33018\O,2,1.2027,1,127.037\N,2,1.38816,1,109.981,3,-179.968,0\C,4,1.38722,2,126.006,1,179.429,0\C,5,1.38628,4,131.062,2,0.203628,0\H,6,1.07706,5,120.899,4,0.0858545,0\C,6,1.37922,5,117.953,4,-179.905,0\H,8,1.07688,6,118.441,5,179.987,0\C,4,1.38742,2,126.138,1,-0.29833,0\H,10,1.07169,4,119.632,2,-0.253834,0\C,10,1.35103,4,110.362,2,179.77,0\H,12,1.07183,10,126.621,4,179.978,0\C,8,1.40576,6,121.937,5,0.00168442,0\C,14,1.39205,8,119.643,6,-0.0365338,0\H,15,1.07981,14,120.547,8,-179.995,0\C,15,1.38701,14,119.261,8,0.0314423,0\C,1,1.45304,2,120.652,3,0.157877,0\C,14,1.4545,8,122.789,6,179.933,0\H,19,1.08083,14,116.255,8,-179.905,0\C,19,1.32466,14,129.013,8,0.0741963,0\F,21,1.3281,19,128.45,14,0.0261229,0\F,21,1.33413,19,122.872,14,-179.973,0\C,18,1.52743,1,110.136,2,-61.6682,0\H,24,1.08619,18,109.533,1,-174.464,0\H,24,1.08647,18,110.445,1,65.6144,0\H,24,1.08808,18,110.154,1,-54.714,0\C,18,1.52747,1,110.124,2,61.418,0\H,28,1.08618,18,109.537,1,174.378,0\H,28,1.08647,18,110.449,1,-65.6966,0\H,28,1.08809,18,110.148,1,54.6277,0\C,18,1.52867,1,103.767,2,179.864,0\H,32,1.08561,18,109.931,1,-179.98,0\H,32,1.08688,18,110.122,1,59.8791,0\H,32,1.08689,18,110.116,1,-59.8422,0\\\@

 Total job time:  75.76s(wall), 75.56s(cpu) 
 Mon Feb  7 13:22:00 2022

        *************************************************************
        *                                                           *
        *  Thank you very much for using Q-Chem.  Have a nice day.  *
        *                                                           *
        *************************************************************


