
Running Job 1 of 1 tidas/B051/conf-2/spe_input.inp
qchem tidas/B051/conf-2/spe_input.inp_134553.0 /home/a/aspuru/seifridm/acdc_laser/descriptor_computation/qchem134553/ 0
/gpfs/fs1/scinet/niagara/software/commercial/qc54/exe/qcprog.exe_s tidas/B051/conf-2/spe_input.inp_134553.0 /home/a/aspuru/seifridm/acdc_laser/descriptor_computation/qchem134553/
                  Welcome to Q-Chem
     A Quantum Leap Into The Future Of Chemistry


 Q-Chem 5.4, Q-Chem, Inc., Pleasanton, CA (2021)

 License issued to: SRG Alan Aspuru-Guzik, University of Toronto

 E. Epifanovsky,  A. T. B. Gilbert,  Xintian Feng,  Joonho Lee,  Yuezhi Mao,  
 N. Mardirossian,  P. Pokhilko,  A. White,  M. Wormit,  M. P. Coons,  
 A. L. Dempwolff,  Zhengting Gan,  D. Hait,  P. R. Horn,  L. D. Jacobson,  
 I. Kaliman,  J. Kussmann,  A. W. Lange,  Ka Un Lao,  D. S. Levine,  Jie Liu,  
 S. C. McKenzie,  A. F. Morrison,  K. Nanda,  F. Plasser,  D. R. Rehn,  
 M. L. Vidal,  Zhi-Qiang You,  Ying Zhu,  B. Alam,  B. Albrecht,  
 A. Aldossary,  E. Alguire,  J. H. Andersen,  D. Barton,  K. Begam,  A. Behn,  
 Y. A. Bernard,  E. J. Berquist,  H. Burton,  A. Carreras,  K. Carter-Fenk,  
 Romit Chakraborty,  A. D. Chien,  K. D. Closser,  V. Cofer-Shabica,  
 S. Dasgupta,  Jia Deng,  M. de Wergifosse,  M. Diedenhofen,  Hainam Do,  
 S. Ehlert,  Po-Tung Fang,  S. Fatehi,  Qingguo Feng,  T. Friedhoff,  
 J. Gayvert,  Qinghui Ge,  G. Gidofalvi,  M. Goldey,  J. Gomes,  
 C. Gonzalez-Espinoza,  S. Gulania,  A. Gunina,  M. W. D. Hanson-Heine,  
 P. H. P. Harbach,  A. W. Hauser,  M. F. Herbst,  M. Hernandez Vera,  
 M. Hodecker,  Z. C. Holden,  S. Houck,  Xunkun Huang,  Kerwin Hui,  
 B. C. Huynh,  M. Ivanov,  Hyunjun Ji,  Hanjie Jiang,  B. Kaduk,  S. Kaehler,  
 K. Khistyaev,  Jaehoon Kim,  P. Klunzinger,  Z. Koczor-Benda,  
 Joong Hoon Koh,  D. Kosenkov,  L. Koulias,  T. Kowalczyk,  C. M. Krauter,  
 K. Kue,  A. Kunitsa,  T. Kus,  A. Landau,  K. V. Lawler,  D. Lefrancois,  
 S. Lehtola,  Rain Li,  Yi-Pei Li,  Jiashu Liang,  M. Liebenthal,  
 Hung-Hsuan Lin,  You-Sheng Lin,  Fenglai Liu,  Kuan-Yu Liu,  
 M. Loipersberger,  A. Luenser,  A. Manjanath,  P. Manohar,  E. Mansoor,  
 S. F. Manzer,  Shan-Ping Mao,  A. V. Marenich,  T. Markovich,  S. Mason,  
 S. A. Maurer,  P. F. McLaughlin,  M. F. S. J. Menger,  J.-M. Mewes,  
 S. A. Mewes,  P. Morgante,  J. W. Mullinax,  K. J. Oosterbaan,  G. Paran,  
 Alexander C. Paul,  Suranjan K. Paul,  F. Pavosevic,  Zheng Pei,  S. Prager,  
 E. I. Proynov,  E. Ramos,  B. Rana,  A. E. Rask,  A. Rettig,  R. M. Richard,  
 F. Rob,  E. Rossomme,  T. Scheele,  M. Scheurer,  M. Schneider,  
 N. Sergueev,  S. M. Sharada,  W. Skomorowski,  D. W. Small,  C. J. Stein,  
 Yu-Chuan Su,  E. J. Sundstrom,  Zhen Tao,  J. Thirman,  T. Tsuchimochi,  
 N. M. Tubman,  S. P. Veccham,  O. Vydrov,  J. Wenzel,  J. Witte,  A. Yamada,  
 Kun Yao,  S. Yeganeh,  S. R. Yost,  A. Zech,  Igor Ying Zhang,  Xing Zhang,  
 Yu Zhang,  D. Zuev,  A. Aspuru-Guzik,  A. T. Bell,  N. A. Besley,  
 K. B. Bravaya,  B. R. Brooks,  D. Casanova,  Jeng-Da Chai,  S. Coriani,  
 C. J. Cramer,  A. E. DePrince, III,  R. A. DiStasio Jr.,  A. Dreuw,  
 B. D. Dunietz,  T. R. Furlani,  W. A. Goddard III,  S. Grimme,  
 S. Hammes-Schiffer,  T. Head-Gordon,  W. J. Hehre,  Chao-Ping Hsu,  
 T.-C. Jagau,  Yousung Jung,  A. Klamt,  Jing Kong,  D. S. Lambrecht,  
 WanZhen Liang,  N. J. Mayhall,  C. W. McCurdy,  J. B. Neaton,  T. Neudecker,  
 C. Ochsenfeld,  J. A. Parkhill,  R. Peverati,  V. A. Rassolov,  Yihan Shao,  
 L. V. Slipchenko,  R. P. Steele,  J. E. Subotnik,  A. J. W. Thom,  
 A. Tkatchenko,  D. G. Truhlar,  T. Van Voorhis,  T. A. Wesolowski,  
 K. B. Whaley,  H. L. Woodcock III,  P. M. Zimmerman,  S. Faraji,  
 P. M. W. Gill,  M. Head-Gordon,  J. M. Herbert,  A. I. Krylov

 Additional authors since Version 5.4.0: 
 Chandrima Chakravarty,  L. Cunha,  R. Kang,  Yongbin Kim,  S. Kotaru,  
 Shaozhi Li,  Xiangyuan Li,  F. Matz,  A. Molle,  V. Parravicini,  
 Haisheng Ren,  Hengyuan Shen,  Yingli Su,  Hung-Yi Tsai,  C. Utku,  
 Fang Wang,  Jeff Yang,  F. Zeller

 Contributors to earlier versions of Q-Chem not listed above: 
 R. D. Adamson,  B. Austin,  R. Baer,  J. Baker,  G. J. O. Beran,  
 K. Brandhorst,  S. T. Brown,  E. F. C. Byrd,  Arup K. Chakraborty,  
 G. K. L. Chan,  Chun-Min Chang,  Yunqing Chen,  C.-L. Cheng,  
 Siu Hung Chien,  D. M. Chipman,  D. L. Crittenden,  H. Dachsel,  
 R. J. Doerksen,  A. D. Dutoi,  R. G. Edgar,  J. Fosso-Tande,  
 L. Fusti-Molnar,  D. Ghosh,  A. Ghysels,  A. Golubeva-Zadorozhnaya,  
 J. Gonthier,  M. S. Gordon,  S. R. Gwaltney,  G. Hawkins,  J. E. Herr,  
 A. Heyden,  S. Hirata,  E. G. Hohenstein,  G. Kedziora,  F. J. Keil,  
 C. Kelley,  Jihan Kim,  R. A. King,  R. Z. Khaliullin,  P. P. Korambath,  
 W. Kurlancheek,  A. Laurent,  A. M. Lee,  M. S. Lee,  S. V. Levchenko,  
 Ching Yeh Lin,  D. Liotard,  E. Livshits,  R. C. Lochan,  I. Lotan,  
 L. A. Martinez-Martinez,  P. E. Maslen,  N. Nair,  D. P. O'Neill,  
 D. Neuhauser,  E. Neuscamman,  C. M. Oana,  R. Olivares-Amaya,  R. Olson,  
 T. M. Perrine,  B. Peters,  P. A. Pieniazek,  A. Prociuk,  Y. M. Rhee,  
 J. Ritchie,  M. A. Rohrdanz,  E. Rosta,  N. J. Russ,  H. F. Schaefer III,  
 M. W. Schmidt,  N. E. Schultz,  S. Sharma,  N. Shenvi,  C. D. Sherrill,  
 A. C. Simmonett,  A. Sodt,  T. Stein,  D. Stuck,  K. S. Thanthiriwatte,  
 V. Vanovschi,  L. Vogt,  Tao Wang,  A. Warshel,  M. A. Watson,  
 C. F. Williams,  Q. Wu,  X. Xu,  Jun Yang,  W. Zhang,  Yan Zhao

   Please cite Q-Chem as follows:
  "Software for the frontiers of quantum chemistry:
   An overview of developments in the Q-Chem 5 package"
   J. Chem. Phys. 155, 084801 (2021)
   https://doi.org/10.1063/5.0055522 (open access)

 Q-Chem 5.4.2 for Intel X86 EM64T Linux

 Parts of Q-Chem use Armadillo 9.900.5 (Nocturnal Misbehaviour).
 http://arma.sourceforge.net/

 Q-Chem begins on Fri Aug 12 13:11:43 2022  

 Host: 
0

     Scratch files written to /home/a/aspuru/seifridm/acdc_laser/descriptor_computation/qchem134553//
 Dec1321 |scratch|qcdevops|jenkins|workspace|build_RNUM 6959   
 Processing $rem in /gpfs/fs1/scinet/niagara/software/commercial/qc54/config/preferences:
 Processing $rem in /home/a/aspuru/seifridm/.qchemrc:

 Checking the input file for inconsistencies... 	...done.

--------------------------------------------------------------
User input:
--------------------------------------------------------------
$molecule
0 1
C            1.95502940880000        2.14400989720000       -0.98371818620000
C            1.09768110630000        2.14087266560000        0.02528081260000
C           -0.10182894380000        1.29959830950000        0.09698333850000
C           -1.30413320190000        1.90566166610000        0.45715866390000
C           -2.49944140130000        1.21489683260000        0.44553143830000
C           -2.50298538290000       -0.11650543180000        0.06913037660000
F           -3.65770295320000       -0.80060316380000        0.03807053400000
C           -1.31372167880000       -0.74662559210000       -0.26354379150000
F           -1.32255993190000       -2.04973132470000       -0.59709840940000
C           -0.09774531800000       -0.06300750830000       -0.23746819840000
C            1.10929086680000       -0.83970869490000       -0.53113151520000
C            2.22811859530000       -0.79782957200000        0.17093921890000
F            2.47314953670000       -0.03312056610000        1.22558780800000
F            3.29547206690000       -1.54089040320000       -0.09262432600000
H            2.79525931700000        2.81569191140000       -1.00546265780000
H            1.84497293570000        1.48555155660000       -1.82956087960000
H            1.21468527990000        2.84342468400000        0.83948509890000
H           -1.29876313270000        2.94947280350000        0.73108253280000
H           -3.42894850080000        1.68869586360000        0.71648762930000
H            1.05059369590000       -1.57192413710000       -1.32279757500000
$end

$rem
BASIS = 6-31G*
GUI = 2
METHOD = B3LYP
PRINT_ORBITALS false
MOLDEN_FORMAT false
$end
--------------------------------------------------------------
 ----------------------------------------------------------------
             Standard Nuclear Orientation (Angstroms)
    I     Atom           X                Y                Z
 ----------------------------------------------------------------
    1      C       1.9788645050     1.9595131202    -1.1322150161
    2      C       1.1189682677     2.0510875884    -0.1295547988
    3      C      -0.0921108714     1.2347559415     0.0068201106
    4      C      -1.2869370193     1.8845270297     0.3113896351
    5      C      -2.4915433362     1.2112511139     0.3523298559
    6      C      -2.5123233998    -0.1464869128     0.0869283701
    7      F      -3.6762020244    -0.8152658764     0.1081022427
    8      C      -1.3309359674    -0.8177880761    -0.1882990976
    9      F      -1.3567328401    -2.1437244063    -0.4133517977
   10      C      -0.1057982520    -0.1507197561    -0.2141750666
   11      C       1.0912559449    -0.9651111213    -0.4383785061
   12      C       2.2087472237    -0.8804934795     0.2619683788
   13      F       2.4615038688    -0.0347792314     1.2508997017
   14      F       3.2665149216    -1.6570065031     0.0644750983
   15      H       2.8282515931     2.6157838693    -1.2061482790
   16      H       1.8619862758     1.2350855710    -1.9213118930
   17      H       1.2434774881     2.8167526134     0.6244030638
   18      H      -1.2679999144     2.9472046408     0.4983722415
   19      H      -3.4151780898     1.7182042518     0.5798899255
   20      H       1.0245847434    -1.7592594789    -1.1672154556
 ----------------------------------------------------------------
 Molecular Point Group                 C1    NOp =  1
 Largest Abelian Subgroup              C1    NOp =  1
 Nuclear Repulsion Energy =         879.49999530 hartrees
 There are       51 alpha and       51 beta electrons
 Requested basis set is 6-31G(d)
 There are 68 shells and 222 basis functions

 Total QAlloc Memory Limit   8000 MB
 Mega-Array Size       188 MB
 MEM_STATIC part       192 MB
 A cutoff of  1.0D-08 yielded   1621 shell pairs
 There are     18484 function pairs
 Smallest overlap matrix eigenvalue = 3.43E-04

 Scale SEOQF with 1.000000e-01/1.000000e-01/1.000000e-01

 Standard Electronic Orientation quadrupole field applied
 Nucleus-field energy     =     0.0000000281 hartrees
 Guess from superposition of atomic densities
 Warning:  Energy on first SCF cycle will be non-variational
 SAD guess density has 102.000000 electrons

 -----------------------------------------------------------------------
  General SCF calculation program by
  Eric Jon Sundstrom, Paul Horn, Yuezhi Mao, Dmitri Zuev, Alec White,
  David Stuck, Shaama M.S., Shane Yost, Joonho Lee, David Small,
  Daniel Levine, Susi Lehtola, Hugh Burton, Evgeny Epifanovsky,
  Bang C. Huynh
 -----------------------------------------------------------------------
 Exchange:     0.2000 Hartree-Fock + 0.0800 Slater + 0.7200 B88
 Correlation:  0.1900 VWN1RPA + 0.8100 LYP
 Using SG-1 standard quadrature grid
 A restricted SCF calculation will be
 performed using DIIS
 SCF converges when DIIS error is below 1.0e-05
 ---------------------------------------
  Cycle       Energy         DIIS error
 ---------------------------------------
    1    -787.0296557642      5.24e-02  
    2    -783.7643951815      5.80e-03  
    3    -783.5686739802      8.02e-03  
    4    -783.9504266364      1.45e-03  
    5    -783.9623480859      5.25e-04  
    6    -783.9637070278      2.37e-04  
    7    -783.9640598030      4.20e-05  
    8    -783.9640688812      1.66e-05  
    9    -783.9640707628      3.52e-06  Convergence criterion met
 ---------------------------------------
 SCF time:   CPU 52.47s  wall 54.00s 
 SCF   energy in the final basis set =     -783.9640707628
 Total energy in the final basis set =     -783.9640707628
 
 --------------------------------------------------------------
 
                    Orbital Energies (a.u.)
 --------------------------------------------------------------
 
 Alpha MOs
 -- Occupied --
-24.7417 -24.7384 -24.7200 -24.7162 -10.3600 -10.2833 -10.2825 -10.2222
-10.2114 -10.2061 -10.2059 -10.2030 -10.1977 -10.1856  -1.2871  -1.2372
 -1.2268  -1.2237  -0.8887  -0.8190  -0.7996  -0.7555  -0.7374  -0.6638
 -0.6343  -0.6240  -0.5865  -0.5782  -0.5565  -0.5389  -0.5239  -0.5179
 -0.5053  -0.4868  -0.4745  -0.4603  -0.4535  -0.4492  -0.4425  -0.4364
 -0.4293  -0.4158  -0.4027  -0.3993  -0.3681  -0.3662  -0.3547  -0.2943
 -0.2905  -0.2436  -0.2272
 -- Virtual --
 -0.0394  -0.0168   0.0332   0.0423   0.0740   0.1093   0.1187   0.1399
  0.1443   0.1576   0.1689   0.1788   0.1822   0.2039   0.2261   0.2708
  0.3086   0.3265   0.3321   0.3543   0.3717   0.4007   0.4112   0.4592
  0.4840   0.4859   0.5033   0.5091   0.5174   0.5323   0.5378   0.5512
  0.5606   0.5652   0.5761   0.5950   0.6040   0.6157   0.6382   0.6436
  0.6614   0.6675   0.6883   0.7072   0.7173   0.7497   0.7838   0.8052
  0.8287   0.8477   0.8558   0.8674   0.8678   0.8962   0.9101   0.9190
  0.9373   0.9530   0.9711   0.9910   1.0040   1.0571   1.0705   1.0892
  1.1232   1.1321   1.1479   1.1732   1.1801   1.1954   1.2230   1.2312
  1.2475   1.2642   1.2853   1.3170   1.3363   1.3498   1.3645   1.3802
  1.3986   1.4254   1.4425   1.4445   1.4521   1.4642   1.4786   1.5000
  1.5134   1.5805   1.5863   1.6319   1.6731   1.7140   1.7278   1.7414
  1.7546   1.7714   1.7910   1.7954   1.8102   1.8241   1.8362   1.8395
  1.8460   1.8666   1.8801   1.8870   1.9066   1.9393   1.9705   1.9819
  1.9993   2.0092   2.0199   2.0329   2.0493   2.0735   2.0912   2.1015
  2.1345   2.1494   2.1998   2.2056   2.2183   2.2547   2.2639   2.3069
  2.3248   2.3270   2.3562   2.3745   2.4045   2.4341   2.4862   2.5100
  2.5379   2.5603   2.5884   2.6032   2.6513   2.6688   2.6857   2.7269
  2.7345   2.7922   2.8387   2.8885   2.9275   3.0038   3.0431   3.0555
  3.1210   3.1577   3.2038   3.3270   3.4652   4.0493   4.0880   4.1010
  4.1277   4.1836   4.2647   4.2965   4.4175   4.4360   4.7436   4.7944
  4.8937   5.2937   6.1470
 --------------------------------------------------------------
 
          Ground-State Mulliken Net Atomic Charges

     Atom                 Charge (a.u.)
  ----------------------------------------
      1 C                    -0.327667
      2 C                    -0.144787
      3 C                     0.111542
      4 C                    -0.181822
      5 C                    -0.199598
      6 C                     0.324719
      7 F                    -0.282535
      8 C                     0.256693
      9 F                    -0.275568
     10 C                     0.025178
     11 C                    -0.336490
     12 C                     0.588119
     13 F                    -0.230900
     14 F                    -0.241741
     15 H                     0.147519
     16 H                     0.152859
     17 H                     0.141778
     18 H                     0.140284
     19 H                     0.155151
     20 H                     0.177264
  ----------------------------------------
  Sum of atomic charges =     0.000000

 -----------------------------------------------------------------
                    Cartesian Multipole Moments
 -----------------------------------------------------------------
    Charge (ESU x 10^10)
                 0.0000
    Dipole Moment (Debye)
         X       0.3597      Y       1.9047      Z      -0.2661
       Tot       1.9565
    Quadrupole Moments (Debye-Ang)
        XX     -78.4819     XY      -2.7237     YY     -73.1862
        XZ      -2.6591     YZ       2.0214     ZZ     -75.3354
    Octopole Moments (Debye-Ang^2)
       XXX       7.9506    XXY      10.5997    XYY       4.4604
       YYY     -21.2008    XXZ       0.7004    XYZ      -2.5374
       YYZ       8.4678    XZZ       4.6567    YZZ     -15.9489
       ZZZ       5.7130
    Hexadecapole Moments (Debye-Ang^3)
      XXXX   -1991.2413   XXXY     -14.8853   XXYY    -464.7779
      XYYY      -2.1324   YYYY    -923.1364   XXXZ       5.5732
      XXYZ       2.2883   XYYZ       0.9921   YYYZ      27.7346
      XXZZ    -354.3883   XYZZ       3.5414   YYZZ    -192.4280
      XZZZ      25.8585   YZZZ       8.3212   ZZZZ    -205.3243
 -----------------------------------------------------------------
 Total job time:  57.09s(wall), 52.97s(cpu) 
 Fri Aug 12 13:12:40 2022

        *************************************************************
        *                                                           *
        *  Thank you very much for using Q-Chem.  Have a nice day.  *
        *                                                           *
        *************************************************************


