
Running Job 1 of 1 tidas/B052/conf-2/spe_input.inp
qchem tidas/B052/conf-2/spe_input.inp_239650.0 /home/a/aspuru/seifridm/acdc_laser/descriptor_computation/qchem239650/ 0
/gpfs/fs1/scinet/niagara/software/commercial/qc54/exe/qcprog.exe_s tidas/B052/conf-2/spe_input.inp_239650.0 /home/a/aspuru/seifridm/acdc_laser/descriptor_computation/qchem239650/
                  Welcome to Q-Chem
     A Quantum Leap Into The Future Of Chemistry


 Q-Chem 5.4, Q-Chem, Inc., Pleasanton, CA (2021)

 License issued to: SRG Alan Aspuru-Guzik, University of Toronto

 E. Epifanovsky,  A. T. B. Gilbert,  Xintian Feng,  Joonho Lee,  Yuezhi Mao,  
 N. Mardirossian,  P. Pokhilko,  A. White,  M. Wormit,  M. P. Coons,  
 A. L. Dempwolff,  Zhengting Gan,  D. Hait,  P. R. Horn,  L. D. Jacobson,  
 I. Kaliman,  J. Kussmann,  A. W. Lange,  Ka Un Lao,  D. S. Levine,  Jie Liu,  
 S. C. McKenzie,  A. F. Morrison,  K. Nanda,  F. Plasser,  D. R. Rehn,  
 M. L. Vidal,  Zhi-Qiang You,  Ying Zhu,  B. Alam,  B. Albrecht,  
 A. Aldossary,  E. Alguire,  J. H. Andersen,  D. Barton,  K. Begam,  A. Behn,  
 Y. A. Bernard,  E. J. Berquist,  H. Burton,  A. Carreras,  K. Carter-Fenk,  
 Romit Chakraborty,  A. D. Chien,  K. D. Closser,  V. Cofer-Shabica,  
 S. Dasgupta,  Jia Deng,  M. de Wergifosse,  M. Diedenhofen,  Hainam Do,  
 S. Ehlert,  Po-Tung Fang,  S. Fatehi,  Qingguo Feng,  T. Friedhoff,  
 J. Gayvert,  Qinghui Ge,  G. Gidofalvi,  M. Goldey,  J. Gomes,  
 C. Gonzalez-Espinoza,  S. Gulania,  A. Gunina,  M. W. D. Hanson-Heine,  
 P. H. P. Harbach,  A. W. Hauser,  M. F. Herbst,  M. Hernandez Vera,  
 M. Hodecker,  Z. C. Holden,  S. Houck,  Xunkun Huang,  Kerwin Hui,  
 B. C. Huynh,  M. Ivanov,  Hyunjun Ji,  Hanjie Jiang,  B. Kaduk,  S. Kaehler,  
 K. Khistyaev,  Jaehoon Kim,  P. Klunzinger,  Z. Koczor-Benda,  
 Joong Hoon Koh,  D. Kosenkov,  L. Koulias,  T. Kowalczyk,  C. M. Krauter,  
 K. Kue,  A. Kunitsa,  T. Kus,  A. Landau,  K. V. Lawler,  D. Lefrancois,  
 S. Lehtola,  Rain Li,  Yi-Pei Li,  Jiashu Liang,  M. Liebenthal,  
 Hung-Hsuan Lin,  You-Sheng Lin,  Fenglai Liu,  Kuan-Yu Liu,  
 M. Loipersberger,  A. Luenser,  A. Manjanath,  P. Manohar,  E. Mansoor,  
 S. F. Manzer,  Shan-Ping Mao,  A. V. Marenich,  T. Markovich,  S. Mason,  
 S. A. Maurer,  P. F. McLaughlin,  M. F. S. J. Menger,  J.-M. Mewes,  
 S. A. Mewes,  P. Morgante,  J. W. Mullinax,  K. J. Oosterbaan,  G. Paran,  
 Alexander C. Paul,  Suranjan K. Paul,  F. Pavosevic,  Zheng Pei,  S. Prager,  
 E. I. Proynov,  E. Ramos,  B. Rana,  A. E. Rask,  A. Rettig,  R. M. Richard,  
 F. Rob,  E. Rossomme,  T. Scheele,  M. Scheurer,  M. Schneider,  
 N. Sergueev,  S. M. Sharada,  W. Skomorowski,  D. W. Small,  C. J. Stein,  
 Yu-Chuan Su,  E. J. Sundstrom,  Zhen Tao,  J. Thirman,  T. Tsuchimochi,  
 N. M. Tubman,  S. P. Veccham,  O. Vydrov,  J. Wenzel,  J. Witte,  A. Yamada,  
 Kun Yao,  S. Yeganeh,  S. R. Yost,  A. Zech,  Igor Ying Zhang,  Xing Zhang,  
 Yu Zhang,  D. Zuev,  A. Aspuru-Guzik,  A. T. Bell,  N. A. Besley,  
 K. B. Bravaya,  B. R. Brooks,  D. Casanova,  Jeng-Da Chai,  S. Coriani,  
 C. J. Cramer,  A. E. DePrince, III,  R. A. DiStasio Jr.,  A. Dreuw,  
 B. D. Dunietz,  T. R. Furlani,  W. A. Goddard III,  S. Grimme,  
 S. Hammes-Schiffer,  T. Head-Gordon,  W. J. Hehre,  Chao-Ping Hsu,  
 T.-C. Jagau,  Yousung Jung,  A. Klamt,  Jing Kong,  D. S. Lambrecht,  
 WanZhen Liang,  N. J. Mayhall,  C. W. McCurdy,  J. B. Neaton,  T. Neudecker,  
 C. Ochsenfeld,  J. A. Parkhill,  R. Peverati,  V. A. Rassolov,  Yihan Shao,  
 L. V. Slipchenko,  R. P. Steele,  J. E. Subotnik,  A. J. W. Thom,  
 A. Tkatchenko,  D. G. Truhlar,  T. Van Voorhis,  T. A. Wesolowski,  
 K. B. Whaley,  H. L. Woodcock III,  P. M. Zimmerman,  S. Faraji,  
 P. M. W. Gill,  M. Head-Gordon,  J. M. Herbert,  A. I. Krylov

 Additional authors since Version 5.4.0: 
 Chandrima Chakravarty,  L. Cunha,  R. Kang,  Yongbin Kim,  S. Kotaru,  
 Shaozhi Li,  Xiangyuan Li,  F. Matz,  A. Molle,  V. Parravicini,  
 Haisheng Ren,  Hengyuan Shen,  Yingli Su,  Hung-Yi Tsai,  C. Utku,  
 Fang Wang,  Jeff Yang,  F. Zeller

 Contributors to earlier versions of Q-Chem not listed above: 
 R. D. Adamson,  B. Austin,  R. Baer,  J. Baker,  G. J. O. Beran,  
 K. Brandhorst,  S. T. Brown,  E. F. C. Byrd,  Arup K. Chakraborty,  
 G. K. L. Chan,  Chun-Min Chang,  Yunqing Chen,  C.-L. Cheng,  
 Siu Hung Chien,  D. M. Chipman,  D. L. Crittenden,  H. Dachsel,  
 R. J. Doerksen,  A. D. Dutoi,  R. G. Edgar,  J. Fosso-Tande,  
 L. Fusti-Molnar,  D. Ghosh,  A. Ghysels,  A. Golubeva-Zadorozhnaya,  
 J. Gonthier,  M. S. Gordon,  S. R. Gwaltney,  G. Hawkins,  J. E. Herr,  
 A. Heyden,  S. Hirata,  E. G. Hohenstein,  G. Kedziora,  F. J. Keil,  
 C. Kelley,  Jihan Kim,  R. A. King,  R. Z. Khaliullin,  P. P. Korambath,  
 W. Kurlancheek,  A. Laurent,  A. M. Lee,  M. S. Lee,  S. V. Levchenko,  
 Ching Yeh Lin,  D. Liotard,  E. Livshits,  R. C. Lochan,  I. Lotan,  
 L. A. Martinez-Martinez,  P. E. Maslen,  N. Nair,  D. P. O'Neill,  
 D. Neuhauser,  E. Neuscamman,  C. M. Oana,  R. Olivares-Amaya,  R. Olson,  
 T. M. Perrine,  B. Peters,  P. A. Pieniazek,  A. Prociuk,  Y. M. Rhee,  
 J. Ritchie,  M. A. Rohrdanz,  E. Rosta,  N. J. Russ,  H. F. Schaefer III,  
 M. W. Schmidt,  N. E. Schultz,  S. Sharma,  N. Shenvi,  C. D. Sherrill,  
 A. C. Simmonett,  A. Sodt,  T. Stein,  D. Stuck,  K. S. Thanthiriwatte,  
 V. Vanovschi,  L. Vogt,  Tao Wang,  A. Warshel,  M. A. Watson,  
 C. F. Williams,  Q. Wu,  X. Xu,  Jun Yang,  W. Zhang,  Yan Zhao

   Please cite Q-Chem as follows:
  "Software for the frontiers of quantum chemistry:
   An overview of developments in the Q-Chem 5 package"
   J. Chem. Phys. 155, 084801 (2021)
   https://doi.org/10.1063/5.0055522 (open access)

 Q-Chem 5.4.2 for Intel X86 EM64T Linux

 Parts of Q-Chem use Armadillo 9.900.5 (Nocturnal Misbehaviour).
 http://arma.sourceforge.net/

 Q-Chem begins on Fri Aug 12 12:43:23 2022  

 Host: 
0

     Scratch files written to /home/a/aspuru/seifridm/acdc_laser/descriptor_computation/qchem239650//
 Dec1321 |scratch|qcdevops|jenkins|workspace|build_RNUM 6959   
 Processing $rem in /gpfs/fs1/scinet/niagara/software/commercial/qc54/config/preferences:
 Processing $rem in /home/a/aspuru/seifridm/.qchemrc:

 Checking the input file for inconsistencies... 	...done.

--------------------------------------------------------------
User input:
--------------------------------------------------------------
$molecule
0 1
C            0.86743743950000       -4.17587905120000       -0.60414929320000
C            1.35134350260000       -3.15260413320000        0.08581714800000
C            0.86439490020000       -1.77655476990000       -0.02498488990000
C           -0.47930627650000       -1.54096767410000       -0.18627663590000
C           -1.02211529790000       -0.24220426820000       -0.25506248310000
C           -2.46613642420000       -0.09192392940000       -0.40973975180000
C           -3.21910107280000        0.84830010190000        0.13901197070000
F           -2.83984666020000        1.80461420150000        0.96830426070000
F           -4.53615683760000        0.92046402350000       -0.04185024420000
C           -0.14907058340000        0.81962786320000       -0.18760572740000
F           -0.61164987870000        2.07911821580000       -0.32016869960000
C            1.24248700080000        0.64753951500000       -0.03335220390000
C            2.11589411770000        1.75376342380000        0.02574864920000
C            3.46251785500000        1.56637225260000        0.16036089100000
C            3.98567703930000        0.26822915780000        0.23130526430000
C            3.15883474470000       -0.82105926120000        0.17553630720000
C            1.76254688870000       -0.67158976210000        0.05387653440000
H            1.24674984070000       -5.17484241360000       -0.47481530080000
H            0.08946267670000       -4.05235525330000       -1.33884382730000
H            2.15404169910000       -3.31776552320000        0.79175217510000
H           -1.16194191260000       -2.37616422250000       -0.22702027760000
H           -2.97775201590000       -0.83429129740000       -1.00353419840000
H            1.69723356470000        2.74666467280000       -0.03833964570000
H            4.12898187980000        2.41432517820000        0.20691467270000
H            5.05270777590000        0.13114724180000        0.32642280040000
H            3.58295667860000       -1.81212346610000        0.21449737160000
$end

$rem
BASIS = 6-31G*
GUI = 2
METHOD = B3LYP
PRINT_ORBITALS false
MOLDEN_FORMAT false
$end
--------------------------------------------------------------
 ----------------------------------------------------------------
             Standard Nuclear Orientation (Angstroms)
    I     Atom           X                Y                Z
 ----------------------------------------------------------------
    1      C      -1.9679103164    -3.7262292439     0.2374047733
    2      C      -2.1190669138    -2.5471241731    -0.3492580265
    3      C      -1.2465178215    -1.3935582251    -0.1237551030
    4      C       0.1048214938    -1.5829281913     0.0345807111
    5      C       1.0081745578    -0.5155822895     0.2103233606
    6      C       2.4300296518    -0.8152087037     0.3526552063
    7      C       3.4337682400    -0.0948596183    -0.1224358224
    8      F       3.3640492078     1.0022198391    -0.8556835225
    9      F       4.7109285253    -0.4334604446     0.0411665798
   10      C       0.4906442573     0.7589827496     0.2538125754
   11      F       1.3050852505     1.8069938118     0.4909352786
   12      C      -0.8875994878     1.0222742963     0.1090272171
   13      C      -1.3923746016     2.3383867669     0.1648330263
   14      C      -2.7324578461     2.5720127482     0.0374470175
   15      C      -3.6168429199     1.4996232157    -0.1407322813
   16      C      -3.1514649153     0.2137282236    -0.1975213523
   17      C      -1.7750946636    -0.0695031168    -0.0873081655
   18      H      -2.6254966880    -4.5515725450     0.0254576624
   19      H      -1.1957968886    -3.9064653564     0.9665376261
   20      H      -2.9274436794    -2.4017520140    -1.0530626031
   21      H       0.5081309251    -2.5831248315    -0.0118187937
   22      H       2.6920483779    -1.7267440665     0.8683112323
   23      H      -0.6983613819     3.1522302578     0.3105769166
   24      H      -3.1164788897     3.5800668805     0.0789249558
   25      H      -4.6754207285     1.6945312047    -0.2291477163
   26      H      -3.8504001876    -0.5990350166    -0.3179831228
 ----------------------------------------------------------------
 Molecular Point Group                 C1    NOp =  1
 Largest Abelian Subgroup              C1    NOp =  1
 Nuclear Repulsion Energy =        1130.10754649 hartrees
 There are       60 alpha and       60 beta electrons
 Requested basis set is 6-31G(d)
 There are 86 shells and 273 basis functions

 Total QAlloc Memory Limit   8000 MB
 Mega-Array Size       188 MB
 MEM_STATIC part       192 MB
 A cutoff of  1.0D-08 yielded   2226 shell pairs
 There are     24449 function pairs
 Smallest overlap matrix eigenvalue = 2.30E-04

 Scale SEOQF with 1.000000e-01/1.000000e-01/1.000000e+00

 Standard Electronic Orientation quadrupole field applied
 Nucleus-field energy     =     0.0000000379 hartrees
 Guess from superposition of atomic densities
 Warning:  Energy on first SCF cycle will be non-variational
 SAD guess density has 120.000000 electrons

 -----------------------------------------------------------------------
  General SCF calculation program by
  Eric Jon Sundstrom, Paul Horn, Yuezhi Mao, Dmitri Zuev, Alec White,
  David Stuck, Shaama M.S., Shane Yost, Joonho Lee, David Small,
  Daniel Levine, Susi Lehtola, Hugh Burton, Evgeny Epifanovsky,
  Bang C. Huynh
 -----------------------------------------------------------------------
 Exchange:     0.2000 Hartree-Fock + 0.0800 Slater + 0.7200 B88
 Correlation:  0.1900 VWN1RPA + 0.8100 LYP
 Using SG-1 standard quadrature grid
 A restricted SCF calculation will be
 performed using DIIS
 SCF converges when DIIS error is below 1.0e-05
 ---------------------------------------
  Cycle       Energy         DIIS error
 ---------------------------------------
    1    -842.4209908944      4.85e-02  
    2    -838.1447606742      5.05e-03  
    3    -837.9761327347      6.62e-03  
    4    -838.3679217498      1.35e-03  
    5    -838.3841625625      4.55e-04  
    6    -838.3857437499      2.17e-04  
    7    -838.3862072319      4.38e-05  
    8    -838.3862228318      2.22e-05  
    9    -838.3862277731      5.16e-06  Convergence criterion met
 ---------------------------------------
 SCF time:   CPU 86.66s  wall 96.00s 
 SCF   energy in the final basis set =     -838.3862277731
 Total energy in the final basis set =     -838.3862277731
 
 --------------------------------------------------------------
 
                    Orbital Energies (a.u.)
 --------------------------------------------------------------
 
 Alpha MOs
 -- Occupied --
-24.7385 -24.7335 -24.7123 -10.3575 -10.2737 -10.2116 -10.2050 -10.2043
-10.2043 -10.2012 -10.1969 -10.1951 -10.1939 -10.1936 -10.1930 -10.1926
-10.1847  -1.2837  -1.2256  -1.2210  -0.8903  -0.8459  -0.8161  -0.7886
 -0.7594  -0.7463  -0.7167  -0.6554  -0.6392  -0.6177  -0.6155  -0.5735
 -0.5680  -0.5468  -0.5412  -0.5231  -0.5154  -0.4899  -0.4785  -0.4669
 -0.4645  -0.4496  -0.4421  -0.4379  -0.4320  -0.4296  -0.4202  -0.4135
 -0.3994  -0.3886  -0.3857  -0.3711  -0.3469  -0.3401  -0.3387  -0.3047
 -0.2765  -0.2651  -0.2379  -0.2071
 -- Virtual --
 -0.0506  -0.0240   0.0007   0.0293   0.0670   0.0918   0.1000   0.1115
  0.1216   0.1232   0.1411   0.1534   0.1632   0.1771   0.1846   0.1877
  0.2008   0.2129   0.2290   0.2679   0.2716   0.2834   0.3180   0.3236
  0.3366   0.3482   0.3635   0.3850   0.4103   0.4228   0.4603   0.4721
  0.4889   0.4946   0.5147   0.5204   0.5313   0.5426   0.5433   0.5508
  0.5519   0.5567   0.5678   0.5753   0.5833   0.5918   0.5961   0.5979
  0.6081   0.6126   0.6185   0.6265   0.6398   0.6470   0.6709   0.6814
  0.6940   0.6962   0.7071   0.7365   0.7469   0.7823   0.8255   0.8272
  0.8310   0.8351   0.8390   0.8475   0.8519   0.8730   0.8770   0.8946
  0.9213   0.9295   0.9397   0.9488   0.9651   0.9747   0.9985   1.0084
  1.0273   1.0402   1.0465   1.0639   1.0870   1.1168   1.1341   1.1472
  1.1666   1.1768   1.1959   1.2113   1.2177   1.2269   1.2488   1.2569
  1.2676   1.2805   1.2956   1.3276   1.3558   1.3722   1.3948   1.4102
  1.4195   1.4337   1.4438   1.4553   1.4618   1.4702   1.4819   1.4928
  1.4973   1.5205   1.5399   1.5589   1.5653   1.6390   1.6553   1.6794
  1.7069   1.7282   1.7483   1.7600   1.7766   1.7843   1.7913   1.8111
  1.8254   1.8379   1.8420   1.8577   1.8647   1.8899   1.9066   1.9168
  1.9306   1.9341   1.9599   1.9740   1.9947   2.0000   2.0045   2.0157
  2.0250   2.0484   2.0635   2.0964   2.1138   2.1212   2.1411   2.1520
  2.1747   2.1941   2.2109   2.2290   2.2530   2.2644   2.2714   2.2863
  2.3062   2.3297   2.3400   2.3625   2.3776   2.3995   2.4257   2.4533
  2.5072   2.5164   2.5335   2.5411   2.5985   2.6283   2.6463   2.6512
  2.6726   2.6896   2.7104   2.7372   2.7711   2.7835   2.8096   2.8383
  2.8558   2.9177   2.9452   3.0163   3.0357   3.0620   3.1119   3.1396
  3.1817   3.3120   3.4172   3.5343   4.0806   4.0904   4.0958   4.1073
  4.1154   4.1314   4.1556   4.2394   4.2739   4.3250   4.3882   4.4966
  4.5782   4.7276   4.8392   5.2602   5.7324
 --------------------------------------------------------------
 
          Ground-State Mulliken Net Atomic Charges

     Atom                 Charge (a.u.)
  ----------------------------------------
      1 C                    -0.335392
      2 C                    -0.132328
      3 C                     0.114048
      4 C                    -0.269062
      5 C                     0.117313
      6 C                    -0.318403
      7 C                     0.567882
      8 F                    -0.228072
      9 F                    -0.247402
     10 C                     0.234458
     11 F                    -0.283816
     12 C                     0.057593
     13 C                    -0.181149
     14 C                    -0.132793
     15 C                    -0.128204
     16 C                    -0.198830
     17 C                     0.083584
     18 H                     0.144420
     19 H                     0.144574
     20 H                     0.140904
     21 H                     0.136723
     22 H                     0.168231
     23 H                     0.146530
     24 H                     0.133999
     25 H                     0.132008
     26 H                     0.133185
  ----------------------------------------
  Sum of atomic charges =     0.000000

 -----------------------------------------------------------------
                    Cartesian Multipole Moments
 -----------------------------------------------------------------
    Charge (ESU x 10^10)
                 0.0000
    Dipole Moment (Debye)
         X      -1.8195      Y      -1.0459      Z       0.0974
       Tot       2.1009
    Quadrupole Moments (Debye-Ang)
        XX     -90.7462     XY      -3.5386     YY     -86.0840
        XZ       2.7458     YZ      -0.5592     ZZ     -96.4286
    Octopole Moments (Debye-Ang^2)
       XXX      17.1453    XXY       5.9623    XYY       8.9979
       YYY      17.0458    XXZ      -6.6688    XYZ      -4.6662
       YYZ       4.7519    XZZ      32.1458    YZZ       4.1730
       ZZZ      -3.2652
    Hexadecapole Moments (Debye-Ang^3)
      XXXX   -3372.7801   XXXY       0.8722   XXYY    -807.8848
      XYYY      15.8694   YYYY   -1692.1293   XXXZ      22.9818
      XXYZ      12.6397   XYYZ       4.8719   YYYZ     -15.4707
      XXZZ    -608.9092   XYZZ      14.7805   YYZZ    -343.2771
      XZZZ     -17.7388   YZZZ      -1.4093   ZZZZ    -149.8336
 -----------------------------------------------------------------
 Total job time:  98.25s(wall), 87.22s(cpu) 
 Fri Aug 12 12:45:01 2022

        *************************************************************
        *                                                           *
        *  Thank you very much for using Q-Chem.  Have a nice day.  *
        *                                                           *
        *************************************************************


