
Running Job 1 of 1 tidas/B054/conf-1/spe_input.inp
qchem tidas/B054/conf-1/spe_input.inp_134496.0 /home/a/aspuru/seifridm/acdc_laser/descriptor_computation/qchem134496/ 0
/gpfs/fs1/scinet/niagara/software/commercial/qc54/exe/qcprog.exe_s tidas/B054/conf-1/spe_input.inp_134496.0 /home/a/aspuru/seifridm/acdc_laser/descriptor_computation/qchem134496/
                  Welcome to Q-Chem
     A Quantum Leap Into The Future Of Chemistry


 Q-Chem 5.4, Q-Chem, Inc., Pleasanton, CA (2021)

 License issued to: SRG Alan Aspuru-Guzik, University of Toronto

 E. Epifanovsky,  A. T. B. Gilbert,  Xintian Feng,  Joonho Lee,  Yuezhi Mao,  
 N. Mardirossian,  P. Pokhilko,  A. White,  M. Wormit,  M. P. Coons,  
 A. L. Dempwolff,  Zhengting Gan,  D. Hait,  P. R. Horn,  L. D. Jacobson,  
 I. Kaliman,  J. Kussmann,  A. W. Lange,  Ka Un Lao,  D. S. Levine,  Jie Liu,  
 S. C. McKenzie,  A. F. Morrison,  K. Nanda,  F. Plasser,  D. R. Rehn,  
 M. L. Vidal,  Zhi-Qiang You,  Ying Zhu,  B. Alam,  B. Albrecht,  
 A. Aldossary,  E. Alguire,  J. H. Andersen,  D. Barton,  K. Begam,  A. Behn,  
 Y. A. Bernard,  E. J. Berquist,  H. Burton,  A. Carreras,  K. Carter-Fenk,  
 Romit Chakraborty,  A. D. Chien,  K. D. Closser,  V. Cofer-Shabica,  
 S. Dasgupta,  Jia Deng,  M. de Wergifosse,  M. Diedenhofen,  Hainam Do,  
 S. Ehlert,  Po-Tung Fang,  S. Fatehi,  Qingguo Feng,  T. Friedhoff,  
 J. Gayvert,  Qinghui Ge,  G. Gidofalvi,  M. Goldey,  J. Gomes,  
 C. Gonzalez-Espinoza,  S. Gulania,  A. Gunina,  M. W. D. Hanson-Heine,  
 P. H. P. Harbach,  A. W. Hauser,  M. F. Herbst,  M. Hernandez Vera,  
 M. Hodecker,  Z. C. Holden,  S. Houck,  Xunkun Huang,  Kerwin Hui,  
 B. C. Huynh,  M. Ivanov,  Hyunjun Ji,  Hanjie Jiang,  B. Kaduk,  S. Kaehler,  
 K. Khistyaev,  Jaehoon Kim,  P. Klunzinger,  Z. Koczor-Benda,  
 Joong Hoon Koh,  D. Kosenkov,  L. Koulias,  T. Kowalczyk,  C. M. Krauter,  
 K. Kue,  A. Kunitsa,  T. Kus,  A. Landau,  K. V. Lawler,  D. Lefrancois,  
 S. Lehtola,  Rain Li,  Yi-Pei Li,  Jiashu Liang,  M. Liebenthal,  
 Hung-Hsuan Lin,  You-Sheng Lin,  Fenglai Liu,  Kuan-Yu Liu,  
 M. Loipersberger,  A. Luenser,  A. Manjanath,  P. Manohar,  E. Mansoor,  
 S. F. Manzer,  Shan-Ping Mao,  A. V. Marenich,  T. Markovich,  S. Mason,  
 S. A. Maurer,  P. F. McLaughlin,  M. F. S. J. Menger,  J.-M. Mewes,  
 S. A. Mewes,  P. Morgante,  J. W. Mullinax,  K. J. Oosterbaan,  G. Paran,  
 Alexander C. Paul,  Suranjan K. Paul,  F. Pavosevic,  Zheng Pei,  S. Prager,  
 E. I. Proynov,  E. Ramos,  B. Rana,  A. E. Rask,  A. Rettig,  R. M. Richard,  
 F. Rob,  E. Rossomme,  T. Scheele,  M. Scheurer,  M. Schneider,  
 N. Sergueev,  S. M. Sharada,  W. Skomorowski,  D. W. Small,  C. J. Stein,  
 Yu-Chuan Su,  E. J. Sundstrom,  Zhen Tao,  J. Thirman,  T. Tsuchimochi,  
 N. M. Tubman,  S. P. Veccham,  O. Vydrov,  J. Wenzel,  J. Witte,  A. Yamada,  
 Kun Yao,  S. Yeganeh,  S. R. Yost,  A. Zech,  Igor Ying Zhang,  Xing Zhang,  
 Yu Zhang,  D. Zuev,  A. Aspuru-Guzik,  A. T. Bell,  N. A. Besley,  
 K. B. Bravaya,  B. R. Brooks,  D. Casanova,  Jeng-Da Chai,  S. Coriani,  
 C. J. Cramer,  A. E. DePrince, III,  R. A. DiStasio Jr.,  A. Dreuw,  
 B. D. Dunietz,  T. R. Furlani,  W. A. Goddard III,  S. Grimme,  
 S. Hammes-Schiffer,  T. Head-Gordon,  W. J. Hehre,  Chao-Ping Hsu,  
 T.-C. Jagau,  Yousung Jung,  A. Klamt,  Jing Kong,  D. S. Lambrecht,  
 WanZhen Liang,  N. J. Mayhall,  C. W. McCurdy,  J. B. Neaton,  T. Neudecker,  
 C. Ochsenfeld,  J. A. Parkhill,  R. Peverati,  V. A. Rassolov,  Yihan Shao,  
 L. V. Slipchenko,  R. P. Steele,  J. E. Subotnik,  A. J. W. Thom,  
 A. Tkatchenko,  D. G. Truhlar,  T. Van Voorhis,  T. A. Wesolowski,  
 K. B. Whaley,  H. L. Woodcock III,  P. M. Zimmerman,  S. Faraji,  
 P. M. W. Gill,  M. Head-Gordon,  J. M. Herbert,  A. I. Krylov

 Additional authors since Version 5.4.0: 
 Chandrima Chakravarty,  L. Cunha,  R. Kang,  Yongbin Kim,  S. Kotaru,  
 Shaozhi Li,  Xiangyuan Li,  F. Matz,  A. Molle,  V. Parravicini,  
 Haisheng Ren,  Hengyuan Shen,  Yingli Su,  Hung-Yi Tsai,  C. Utku,  
 Fang Wang,  Jeff Yang,  F. Zeller

 Contributors to earlier versions of Q-Chem not listed above: 
 R. D. Adamson,  B. Austin,  R. Baer,  J. Baker,  G. J. O. Beran,  
 K. Brandhorst,  S. T. Brown,  E. F. C. Byrd,  Arup K. Chakraborty,  
 G. K. L. Chan,  Chun-Min Chang,  Yunqing Chen,  C.-L. Cheng,  
 Siu Hung Chien,  D. M. Chipman,  D. L. Crittenden,  H. Dachsel,  
 R. J. Doerksen,  A. D. Dutoi,  R. G. Edgar,  J. Fosso-Tande,  
 L. Fusti-Molnar,  D. Ghosh,  A. Ghysels,  A. Golubeva-Zadorozhnaya,  
 J. Gonthier,  M. S. Gordon,  S. R. Gwaltney,  G. Hawkins,  J. E. Herr,  
 A. Heyden,  S. Hirata,  E. G. Hohenstein,  G. Kedziora,  F. J. Keil,  
 C. Kelley,  Jihan Kim,  R. A. King,  R. Z. Khaliullin,  P. P. Korambath,  
 W. Kurlancheek,  A. Laurent,  A. M. Lee,  M. S. Lee,  S. V. Levchenko,  
 Ching Yeh Lin,  D. Liotard,  E. Livshits,  R. C. Lochan,  I. Lotan,  
 L. A. Martinez-Martinez,  P. E. Maslen,  N. Nair,  D. P. O'Neill,  
 D. Neuhauser,  E. Neuscamman,  C. M. Oana,  R. Olivares-Amaya,  R. Olson,  
 T. M. Perrine,  B. Peters,  P. A. Pieniazek,  A. Prociuk,  Y. M. Rhee,  
 J. Ritchie,  M. A. Rohrdanz,  E. Rosta,  N. J. Russ,  H. F. Schaefer III,  
 M. W. Schmidt,  N. E. Schultz,  S. Sharma,  N. Shenvi,  C. D. Sherrill,  
 A. C. Simmonett,  A. Sodt,  T. Stein,  D. Stuck,  K. S. Thanthiriwatte,  
 V. Vanovschi,  L. Vogt,  Tao Wang,  A. Warshel,  M. A. Watson,  
 C. F. Williams,  Q. Wu,  X. Xu,  Jun Yang,  W. Zhang,  Yan Zhao

   Please cite Q-Chem as follows:
  "Software for the frontiers of quantum chemistry:
   An overview of developments in the Q-Chem 5 package"
   J. Chem. Phys. 155, 084801 (2021)
   https://doi.org/10.1063/5.0055522 (open access)

 Q-Chem 5.4.2 for Intel X86 EM64T Linux

 Parts of Q-Chem use Armadillo 9.900.5 (Nocturnal Misbehaviour).
 http://arma.sourceforge.net/

 Q-Chem begins on Fri Aug 12 13:11:43 2022  

 Host: 
0

     Scratch files written to /home/a/aspuru/seifridm/acdc_laser/descriptor_computation/qchem134496//
 Dec1321 |scratch|qcdevops|jenkins|workspace|build_RNUM 6959   
 Processing $rem in /gpfs/fs1/scinet/niagara/software/commercial/qc54/config/preferences:
 Processing $rem in /home/a/aspuru/seifridm/.qchemrc:

 Checking the input file for inconsistencies... 	...done.

--------------------------------------------------------------
User input:
--------------------------------------------------------------
$molecule
0 1
C           -2.75300764760000        3.41670310530000        0.07414906130000
C           -1.56938575550000        2.82634522740000       -0.03561633200000
C           -1.30530271180000        1.39139978500000       -0.02259906140000
C           -2.32339774180000        0.43629712620000       -0.02230471420000
C           -2.04549094390000       -0.91982293720000       -0.00705922490000
C           -3.12434044970000       -1.95745995520000       -0.00595243820000
C           -0.71160832700000       -1.30668856500000        0.00810726250000
F           -0.43218862920000       -2.63076217290000        0.02399501930000
C            0.34550776700000       -0.39418023640000        0.00378700990000
C            1.70523981210000       -0.90931284020000        0.01742806660000
C            2.83869494280000       -0.22506616700000       -0.00189164360000
F            2.99845244930000        1.09277703530000       -0.03825737980000
F            4.03673910060000       -0.80291013690000        0.01349535000000
C            0.01859030060000        0.96022437200000       -0.01378302330000
H           -2.84441296790000        4.48888229500000        0.05683842710000
H           -3.67255681180000        2.86956357700000        0.19029883540000
H           -0.68453391640000        3.44185172920000       -0.13737615870000
H           -3.35482164270000        0.75074547830000       -0.04046833910000
H           -4.10608882880000       -1.49459576730000       -0.04548120830000
H           -3.05650839300000       -2.56904586680000        0.89295276610000
H           -3.00925258430000       -2.62120418280000       -0.86177182960000
H            1.81224689780000       -1.98417943040000        0.04509933540000
H            0.80469487240000        1.69730052870000       -0.01729045450000
$end

$rem
BASIS = 6-31G*
GUI = 2
METHOD = B3LYP
PRINT_ORBITALS false
MOLDEN_FORMAT false
$end
--------------------------------------------------------------
 ----------------------------------------------------------------
             Standard Nuclear Orientation (Angstroms)
    I     Atom           X                Y                Z
 ----------------------------------------------------------------
    1      C       3.3354268314     2.6933412005    -0.0721147421
    2      C       2.0481421590     2.3886868667     0.0356607559
    3      C       1.4637815882     1.0517636898     0.0239616823
    4      C       2.2372163089    -0.1103575920     0.0273565191
    5      C       1.6573782204    -1.3673843087     0.0132901010
    6      C       2.4711443862    -2.6237220979     0.0161271820
    7      C       0.2704510107    -1.4398721191    -0.0044948498
    8      F      -0.3035500894    -2.6653531339    -0.0192504246
    9      C      -0.5506986635    -0.3103158315    -0.0038981093
   10      C      -1.9920504898    -0.5017919403    -0.0200450922
   11      C      -2.9396158845     0.4229565889    -0.0043201227
   12      F      -2.7946783736     1.7425696365     0.0298874227
   13      F      -4.2378402905     0.1335435668    -0.0217474371
   14      C       0.0764624875     0.9338674077     0.0126105942
   15      H       3.6689173440     3.7164484476    -0.0560385351
   16      H       4.1061858908     1.9506909448    -0.1853585894
   17      H       1.3267867328     3.1899623854     0.1345039928
   18      H       3.3131346412    -0.0393931253     0.0475241526
   19      H       3.5325028214    -2.3968845951     0.0573422193
   20      H       2.2674017294    -3.2053855237    -0.8821075704
   21      H       2.2060130731    -3.2421393632     0.8725697778
   22      H      -2.3413239022    -1.5239767716    -0.0465150077
   23      H      -0.5208272759     1.8308057915     0.0132700006
 ----------------------------------------------------------------
 Molecular Point Group                 C1    NOp =  1
 Largest Abelian Subgroup              C1    NOp =  1
 Nuclear Repulsion Energy =         846.26929184 hartrees
 There are       51 alpha and       51 beta electrons
 Requested basis set is 6-31G(d)
 There are 74 shells and 228 basis functions

 Total QAlloc Memory Limit   8000 MB
 Mega-Array Size       188 MB
 MEM_STATIC part       192 MB
 A cutoff of  1.0D-08 yielded   1782 shell pairs
 There are     18096 function pairs
 Smallest overlap matrix eigenvalue = 3.22E-04

 Scale SEOQF with 1.000000e-01/1.000000e-01/1.000000e+00

 Standard Electronic Orientation quadrupole field applied
 Nucleus-field energy     =     0.0000000406 hartrees
 Guess from superposition of atomic densities
 Warning:  Energy on first SCF cycle will be non-variational
 SAD guess density has 102.000000 electrons

 -----------------------------------------------------------------------
  General SCF calculation program by
  Eric Jon Sundstrom, Paul Horn, Yuezhi Mao, Dmitri Zuev, Alec White,
  David Stuck, Shaama M.S., Shane Yost, Joonho Lee, David Small,
  Daniel Levine, Susi Lehtola, Hugh Burton, Evgeny Epifanovsky,
  Bang C. Huynh
 -----------------------------------------------------------------------
 Exchange:     0.2000 Hartree-Fock + 0.0800 Slater + 0.7200 B88
 Correlation:  0.1900 VWN1RPA + 0.8100 LYP
 Using SG-1 standard quadrature grid
 A restricted SCF calculation will be
 performed using DIIS
 SCF converges when DIIS error is below 1.0e-05
 ---------------------------------------
  Cycle       Energy         DIIS error
 ---------------------------------------
    1    -727.1201591703      5.22e-02  
    2    -723.8376757881      5.90e-03  
    3    -723.6621605192      7.79e-03  
    4    -724.0561736081      1.35e-03  
    5    -724.0677477074      3.98e-04  
    6    -724.0685226760      1.86e-04  
    7    -724.0687388158      4.86e-05  
    8    -724.0687531080      1.87e-05  
    9    -724.0687559012      4.67e-06  Convergence criterion met
 ---------------------------------------
 SCF time:   CPU 53.71s  wall 58.00s 
 SCF   energy in the final basis set =     -724.0687559012
 Total energy in the final basis set =     -724.0687559012
 
 --------------------------------------------------------------
 
                    Orbital Energies (a.u.)
 --------------------------------------------------------------
 
 Alpha MOs
 -- Occupied --
-24.7466 -24.7362 -24.7139 -10.3593 -10.2701 -10.2130 -10.2049 -10.2044
-10.1981 -10.1928 -10.1925 -10.1922 -10.1878 -10.1811  -1.2879  -1.2269
 -1.2242  -0.8789  -0.8199  -0.8016  -0.7621  -0.7288  -0.6983  -0.6539
 -0.6273  -0.6110  -0.5789  -0.5616  -0.5400  -0.5214  -0.5159  -0.5097
 -0.4747  -0.4706  -0.4452  -0.4430  -0.4394  -0.4372  -0.4287  -0.4198
 -0.4079  -0.4066  -0.3892  -0.3836  -0.3743  -0.3533  -0.3419  -0.3182
 -0.2793  -0.2338  -0.2165
 -- Virtual --
 -0.0369  -0.0218   0.0378   0.0875   0.0988   0.1059   0.1118   0.1182
  0.1402   0.1450   0.1574   0.1637   0.1891   0.1942   0.2050   0.2122
  0.2290   0.2631   0.2766   0.3015   0.3421   0.3511   0.3627   0.4084
  0.4138   0.4381   0.4668   0.4818   0.4901   0.5119   0.5159   0.5376
  0.5406   0.5454   0.5596   0.5600   0.5716   0.5823   0.5947   0.5967
  0.6112   0.6260   0.6273   0.6322   0.6649   0.6759   0.6879   0.7010
  0.7557   0.7565   0.7641   0.7764   0.8129   0.8145   0.8315   0.8428
  0.8642   0.8772   0.8799   0.8844   0.9137   0.9258   0.9485   0.9610
  0.9787   0.9908   1.0033   1.0528   1.0661   1.1127   1.1180   1.1355
  1.1564   1.1635   1.2077   1.2111   1.2211   1.2259   1.2484   1.2613
  1.2639   1.2797   1.3209   1.3445   1.3500   1.3671   1.4014   1.4042
  1.4327   1.4392   1.4514   1.4685   1.4754   1.5032   1.5176   1.5264
  1.5501   1.5861   1.6519   1.6752   1.7088   1.7671   1.7756   1.7784
  1.7924   1.8028   1.8052   1.8275   1.8332   1.8356   1.8554   1.8669
  1.8726   1.9012   1.9382   1.9447   1.9719   1.9800   1.9919   2.0028
  2.0163   2.0358   2.0478   2.0749   2.0950   2.1334   2.1493   2.1795
  2.1975   2.2105   2.2284   2.2415   2.2573   2.2965   2.3053   2.3137
  2.3584   2.3667   2.3730   2.4114   2.4338   2.4993   2.5158   2.5370
  2.5670   2.5805   2.6444   2.6544   2.6762   2.7049   2.7447   2.7795
  2.8343   2.8717   2.9204   2.9534   3.0300   3.0777   3.0968   3.1556
  3.2044   3.3473   3.4793   4.0671   4.0909   4.1031   4.1296   4.1463
  4.2265   4.2510   4.2688   4.4510   4.5056   4.7364   4.7886   5.2827
  5.6455
 --------------------------------------------------------------
 
          Ground-State Mulliken Net Atomic Charges

     Atom                 Charge (a.u.)
  ----------------------------------------
      1 C                    -0.355447
      2 C                    -0.113877
      3 C                     0.198830
      4 C                    -0.249038
      5 C                     0.111676
      6 C                    -0.522833
      7 C                     0.241936
      8 F                    -0.289389
      9 C                     0.133106
     10 C                    -0.298398
     11 C                     0.550682
     12 F                    -0.234440
     13 F                    -0.245783
     14 C                    -0.288945
     15 H                     0.145242
     16 H                     0.142065
     17 H                     0.129699
     18 H                     0.126068
     19 H                     0.157086
     20 H                     0.172229
     21 H                     0.172015
     22 H                     0.174841
     23 H                     0.142674
  ----------------------------------------
  Sum of atomic charges =     0.000000

 -----------------------------------------------------------------
                    Cartesian Multipole Moments
 -----------------------------------------------------------------
    Charge (ESU x 10^10)
                 0.0000
    Dipole Moment (Debye)
         X       1.4159      Y      -0.1009      Z       0.0032
       Tot       1.4195
    Quadrupole Moments (Debye-Ang)
        XX     -75.4143     XY      -0.7187     YY     -75.5130
        XZ      -0.1600     YZ       0.1190     ZZ     -80.3903
    Octopole Moments (Debye-Ang^2)
       XXX     -17.6755    XXY      -8.8403    XYY      -9.1495
       YYY       5.1523    XXZ      -1.1732    XYZ      -0.2553
       YYZ       0.6061    XZZ     -25.5920    YZZ      -7.0860
       ZZZ      -0.0778
    Hexadecapole Moments (Debye-Ang^3)
      XXXX   -2474.3418   XXXY     -16.2695   XXYY    -624.0650
      XYYY     -20.8282   YYYY   -1386.1939   XXXZ      -5.5257
      XXYZ      -2.0212   XYYZ       0.2097   YYYZ       2.9006
      XXZZ    -441.6865   XYZZ     -27.8262   YYZZ    -258.0791
      XZZZ       0.0004   YZZZ       1.3945   ZZZZ     -82.6194
 -----------------------------------------------------------------
 Total job time:  61.49s(wall), 54.22s(cpu) 
 Fri Aug 12 13:12:44 2022

        *************************************************************
        *                                                           *
        *  Thank you very much for using Q-Chem.  Have a nice day.  *
        *                                                           *
        *************************************************************


