35
 energy: -43.375086474680 gnorm: 0.000110266532 xtb: 6.4.1 (23d549d)
C        -3.16191578000000   -3.19706449740000   -0.14645525470000
C        -3.10683089570000   -1.99942235510000    0.43180185260000
C        -2.22808656590000   -0.92916730740000    0.04453078040000
C        -1.28934999580000   -0.87270303500000   -0.95413631760000
C        -0.61098780790000    0.35618797270000   -1.03829876380000
C         0.48411681110000    0.61626699050000   -2.02602567030000
C         1.86989955320000    0.50398184870000   -1.37559444880000
C         2.15308136690000   -0.91026719380000   -0.87546964540000
C         3.54743094240000   -1.06512406250000   -0.26853193620000
C         3.71616856590000   -0.32904103490000    1.05904503740000
C         5.08171778570000   -0.59846973640000    1.67961121230000
C        -1.03351864780000    1.26033639360000   -0.08505436020000
C        -0.57207867100000    2.60479290580000    0.12121742150000
C        -0.96613247610000    3.40348414580000    1.11004475760000
S        -2.28151488630000    0.57388025260000    0.91412549320000
H        -3.84669801100000   -3.95222160900000    0.19652034990000
H        -2.53015623060000   -3.46277308280000   -0.97612704870000
H        -3.76042315820000   -1.77392727220000    1.26470695170000
H        -1.08888637200000   -1.69467532690000   -1.61796953440000
H         0.36936727660000    1.61439730990000   -2.45526260680000
H         0.40867476540000   -0.10916027620000   -2.83866952020000
H         1.92652962320000    1.20621860800000   -0.54285834140000
H         2.62903678370000    0.78548959140000   -2.10947412110000
H         2.05659047060000   -1.60418150940000   -1.71483931930000
H         1.40436694740000   -1.18721846730000   -0.12974554580000
H         4.29463659990000   -0.70430334860000   -0.97984723300000
H         3.73868601350000   -2.12830574940000   -0.10200182010000
H         2.93329497250000   -0.65125516470000    1.74963178340000
H         3.60156418850000    0.74516954280000    0.90505541300000
H         5.21248270640000   -1.66169934930000    1.86990713110000
H         5.18649385170000   -0.06596146370000    2.62209069810000
H         5.87522624110000   -0.27158119850000    1.01079701330000
H         0.14933211410000    2.95990495720000   -0.60302687180000
H        -1.67877917770000    3.07466978780000    1.84837507300000
H        -0.58857407260000    4.40539952110000    1.21219997380000
