
Running Job 1 of 1 fragments/A019/conf-0/spe_input.inp
qchem fragments/A019/conf-0/spe_input.inp_170841.0 /gpfs/fs0/scratch/a/aspuru/rhickman/descriptor_computation/qchem170841/ 0
/scinet/niagara/software/commercial/qc52/exe/qcprog.exe_s fragments/A019/conf-0/spe_input.inp_170841.0 /gpfs/fs0/scratch/a/aspuru/rhickman/descriptor_computation/qchem170841/
                  Welcome to Q-Chem
     A Quantum Leap Into The Future Of Chemistry


 Q-Chem 5.2, Q-Chem, Inc., Pleasanton, CA (2019)

 License issued to: SRG Alan Aspuru-Guzik, University of Toronto

 Yihan Shao,  Zhengting Gan,  E. Epifanovsky,  A. T. B. Gilbert,  M. Wormit,  
 J. Kussmann,  A. W. Lange,  A. Behn,  Jia Deng,  Xintian Feng,  D. Ghosh,  
 M. Goldey,  P. R. Horn,  L. D. Jacobson,  I. Kaliman,  T. Kus,  A. Landau,  
 Jie Liu,  E. I. Proynov,  R. M. Richard,  R. P. Steele,  E. J. Sundstrom,  
 H. L. Woodcock III,  P. M. Zimmerman,  D. Zuev,  B. Albrecht,  E. Alguire,  
 S. A. Baeppler,  D. Barton,  Z. Benda,  Y. A. Bernard,  E. J. Berquist,  
 K. B. Bravaya,  H. Burton,  D. Casanova,  Chun-Min Chang,  Yunqing Chen,  
 A. Chien,  K. D. Closser,  M. P. Coons,  S. Coriani,  S. Dasgupta,  
 A. L. Dempwolff,  M. Diedenhofen,  Hainam Do,  R. G. Edgar,  Po-Tung Fang,  
 S. Faraji,  S. Fatehi,  Qingguo Feng,  K. D. Fenk,  J. Fosso-Tande,  
 J. Gayvert,  Qinghui Ge,  A. Ghysels,  G. Gidofalvi,  J. Gomes,  
 J. Gonthier,  A. Gunina,  D. Hait,  M. W. D. Hanson-Heine,  
 P. H. P. Harbach,  A. W. Hauser,  M. F. Herbst,  J. E. Herr,  
 E. G. Hohenstein,  Z. C. Holden,  Kerwin Hui,  B. C. Huynh,  T.-C. Jagau,  
 Hyunjun Ji,  B. Kaduk,  K. Khistyaev,  Jaehoon Kim,  P. Klunzinger,  K. Koh,  
 D. Kosenkov,  L. Koulias,  T. Kowalczyk,  C. M. Krauter,  A. Kunitsa,  
 Ka Un Lao,  A. Laurent,  K. V. Lawler,  Joonho Lee,  D. Lefrancois,  
 S. Lehtola,  D. S. Levine,  Yi-Pei Li,  You-Sheng Lin,  Fenglai Liu,  
 E. Livshits,  A. Luenser,  P. Manohar,  E. Mansoor,  S. F. Manzer,  
 Shan-Ping Mao,  Yuezhi Mao,  N. Mardirossian,  A. V. Marenich,  
 T. Markovich,  L. A. Martinez-Martinez,  S. A. Maurer,  N. J. Mayhall,  
 S. C. McKenzie,  J.-M. Mewes,  P. Morgante,  A. F. Morrison,  
 J. W. Mullinax,  K. Nanda,  T. S. Nguyen-Beck,  R. Olivares-Amaya,  
 J. A. Parkhill,  Zheng Pei,  T. M. Perrine,  F. Plasser,  P. Pokhilko,  
 S. Prager,  A. Prociuk,  E. Ramos,  D. R. Rehn,  F. Rob,  M. Scheurer,  
 M. Schneider,  N. Sergueev,  S. M. Sharada,  S. Sharma,  D. W. Small,  
 T. Stauch,  T. Stein,  Yu-Chuan Su,  A. J. W. Thom,  A. Tkatchenko,  
 T. Tsuchimochi,  N. M. Tubman,  L. Vogt,  M. L. Vidal,  O. Vydrov,  
 M. A. Watson,  J. Wenzel,  M. de Wergifosse,  T. A. Wesolowski,  A. White,  
 J. Witte,  A. Yamada,  Jun Yang,  K. Yao,  S. Yeganeh,  S. R. Yost,  
 Zhi-Qiang You,  A. Zech,  Igor Ying Zhang,  Xing Zhang,  Yan Zhao,  
 Ying Zhu,  B. R. Brooks,  G. K. L. Chan,  C. J. Cramer,  M. S. Gordon,  
 W. J. Hehre,  A. Klamt,  M. W. Schmidt,  C. D. Sherrill,  D. G. Truhlar,  
 A. Aspuru-Guzik,  R. Baer,  A. T. Bell,  N. A. Besley,  Jeng-Da Chai,  
 A. E. DePrince, III,  R. A. DiStasio Jr.,  A. Dreuw,  B. D. Dunietz,  
 T. R. Furlani,  Chao-Ping Hsu,  Yousung Jung,  Jing Kong,  D. S. Lambrecht,  
 WanZhen Liang,  C. Ochsenfeld,  V. A. Rassolov,  L. V. Slipchenko,  
 J. E. Subotnik,  T. Van Voorhis,  J. M. Herbert,  A. I. Krylov,  
 P. M. W. Gill,  M. Head-Gordon

 Contributors to earlier versions of Q-Chem not listed above: 
 R. D. Adamson,  B. Austin,  J. Baker,  G. J. O. Beran,  K. Brandhorst,  
 S. T. Brown,  E. F. C. Byrd,  A. K. Chakraborty,  C.-L. Cheng,  
 Siu Hung Chien,  D. M. Chipman,  D. L. Crittenden,  H. Dachsel,  
 R. J. Doerksen,  A. D. Dutoi,  L. Fusti-Molnar,  W. A. Goddard III,  
 A. Golubeva-Zadorozhnaya,  S. R. Gwaltney,  G. Hawkins,  A. Heyden,  
 S. Hirata,  G. Kedziora,  F. J. Keil,  C. Kelley,  Jihan Kim,  R. A. King,  
 R. Z. Khaliullin,  P. P. Korambath,  W. Kurlancheek,  A. M. Lee,  M. S. Lee,  
 S. V. Levchenko,  Ching Yeh Lin,  D. Liotard,  R. C. Lochan,  I. Lotan,  
 P. E. Maslen,  N. Nair,  D. P. O'Neill,  D. Neuhauser,  E. Neuscamman,  
 C. M. Oana,  R. Olson,  B. Peters,  R. Peverati,  P. A. Pieniazek,  
 Y. M. Rhee,  J. Ritchie,  M. A. Rohrdanz,  E. Rosta,  N. J. Russ,  
 H. F. Schaefer III,  N. E. Schultz,  N. Shenvi,  A. C. Simmonett,  A. Sodt,  
 D. Stuck,  K. S. Thanthiriwatte,  V. Vanovschi,  Tao Wang,  A. Warshel,  
 C. F. Williams,  Q. Wu,  X. Xu,  W. Zhang

 Please cite Q-Chem as follows:
 Y. Shao et al., Mol. Phys. 113, 184-215 (2015)
 DOI: 10.1080/00268976.2014.952696

 Q-Chem 5.2.1 for Intel X86 EM64T Linux

 Parts of Q-Chem use Armadillo 8.300.2 (Tropical Shenanigans).
 http://arma.sourceforge.net/

 Q-Chem begins on Mon Feb  7 18:41:53 2022  

Host: 
0

     Scratch files written to /gpfs/fs0/scratch/a/aspuru/rhickman/descriptor_computation/qchem170841//
 Jul1719 |scratch|qcdevops|jenkins|workspace|build_RNUM -1
Processing $rem in /scinet/niagara/software/commercial/qc52/config/preferences:
	 MEM_TOTAL  4000 
NAlpha2: 190
NElect   190
Mult     1

Checking the input file for inconsistencies... 	...done.

--------------------------------------------------------------
User input:
--------------------------------------------------------------
$molecule
0 1
C        -5.02611009950000   -4.03307682220000   -0.00545632370000
O        -3.63770583010000   -4.22257897200000    0.09352646180000
C        -2.83155495610000   -3.11814115640000    0.09283355820000
C        -3.28063392170000   -1.81131914210000    0.00899590330000
C        -2.33845413390000   -0.78719458830000    0.01318632940000
C        -2.45823243450000    0.64201114470000   -0.03135288100000
C        -3.55541258410000    1.49216265870000   -0.13061254120000
C        -3.32764062240000    2.85683752610000   -0.17870917370000
O        -4.30479966330000    3.80922564470000   -0.26834489870000
C        -5.64396558740000    3.38673693410000   -0.30834421870000
C        -2.01632628800000    3.35750865120000   -0.14905189980000
C        -0.92314114150000    2.52623947570000   -0.05123279600000
C        -1.14680458580000    1.15781589990000    0.02987075460000
N        -0.24419408250000    0.11139560980000    0.10152831660000
C         1.14309740730000    0.22947867260000    0.18072557410000
C         1.72676938540000    1.12103247900000    1.08023060810000
C         3.09800941700000    1.23250356240000    1.15328440770000
C         3.93255285790000    0.45836657330000    0.34189349420000
C         5.36846817250000    0.62550703010000    0.47916849670000
C         6.33942322370000   -0.00544674300000   -0.16571069280000
F         6.22890872120000   -0.94578411490000   -1.09717841250000
F         7.63196377580000    0.23588550410000    0.05054329550000
C         3.33927846130000   -0.43295995130000   -0.55572041350000
C         1.96737568480000   -0.54282779740000   -0.63701092270000
C        -0.95945483900000   -1.07339644220000    0.09008906070000
C        -0.51695798030000   -2.38493776760000    0.20519749340000
C        -1.45822355110000   -3.38967242770000    0.19972886580000
H        -5.46243480670000   -5.03073574950000    0.00516741950000
H        -5.29867476340000   -3.52993194900000   -0.93944552880000
H        -5.41623683300000   -3.45995212660000    0.84261624260000
H        -4.32905499970000   -1.56819551440000   -0.05168617220000
H        -4.54833529010000    1.07486551090000   -0.17458689720000
H        -6.23948755280000    4.29629110530000   -0.37060404100000
H        -5.92001607060000    2.83595412260000    0.59733110830000
H        -5.84418751280000    2.76392878070000   -1.18688098510000
H        -1.88983334510000    4.42653399600000   -0.21097871450000
H         0.07545778100000    2.93479572690000   -0.05318699140000
H         1.09761084400000    1.70711075760000    1.73256871000000
H         3.53694586570000    1.92306020060000    1.85845855500000
H         5.70114171030000    1.35717594580000    1.20148514830000
H         3.94930624860000   -1.03935880260000   -1.20460677270000
H         1.52195804050000   -1.21674723650000   -1.35270511670000
H         0.53091077320000   -2.61908921570000    0.31062722490000
H        -1.15970219420000   -4.42238343160000    0.28325269420000
$end

$rem
BASIS = 6-31G*
GUI = 2
METHOD = B3LYP
PRINT_ORBITALS false
MOLDEN_FORMAT false
--------------------------------------------------------------
 ----------------------------------------------------------------
             Standard Nuclear Orientation (Angstroms)
    I     Atom           X                Y                Z
 ----------------------------------------------------------------
    1      C       4.9310620983     4.0131949022     0.0164712404
    2      O       3.5431645364     4.2089378582     0.1102802208
    3      C       2.7319137935     3.1082578640     0.1040848313
    4      C       3.1752653862     1.7995389411     0.0193582550
    5      C       2.2283408354     0.7797926753     0.0176663963
    6      C       2.3416730202    -0.6498598880    -0.0293333282
    7      C       3.4352916942    -1.5048912678    -0.1259454035
    8      C       3.2013934647    -2.8683931866    -0.1777622137
    9      O       4.1744808861    -3.8251223340    -0.2654416958
   10      C       5.5157400254    -3.4087740002    -0.2992057969
   11      C       1.8876646396    -3.3630311309    -0.1543893398
   12      C       0.7979591809    -2.5268974545    -0.0592406541
   13      C       1.0276337831    -1.1596951074     0.0255739920
   14      N       0.1296014310    -0.1092443980     0.0957676667
   15      C      -1.2585292183    -0.2210475223     0.1691628625
   16      C      -1.8499340317    -1.1117145900     1.0644857065
   17      C      -3.2219582131    -1.2169678049     1.1318154234
   18      C      -4.0496401203    -0.4373122555     0.3186820198
   19      C      -5.4868542496    -0.5980648535     0.4498586118
   20      C      -6.4522774158     0.0387030211    -0.1976059264
   21      F      -6.3336667617     0.9804146345    -1.1266864887
   22      F      -7.7467804575    -0.1970670149     0.0129706272
   23      C      -3.4486417170     0.4530791020    -0.5747117120
   24      C      -2.0759291532     0.5567428191    -0.6502786986
   25      C       0.8503848390     1.0722354570     0.0896322065
   26      C       0.4135115124     2.3855793119     0.2056653260
   27      C       1.3594371467     3.3859427835     0.2060354348
   28      H       5.3719589463     5.0087938915     0.0308959164
   29      H       5.2050411018     3.5106957168    -0.9174517591
   30      H       5.3151197998     3.4365372812     0.8649189598
   31      H       4.2227838560     1.5516753253    -0.0376229068
   32      H       4.4303060321    -1.0921190376    -0.1650824305
   33      H       6.1072860894    -4.3209539848    -0.3609505704
   34      H       5.7907003125    -2.8611264669     0.6086997006
   35      H       5.7223724561    -2.7851118834    -1.1756499012
   36      H       1.7564690656    -4.4313292711    -0.2190220546
   37      H      -0.2025063105    -2.9308088987    -0.0660364688
   38      H      -1.2261229581    -1.7020361113     1.7181319900
   39      H      -3.6669183795    -1.9069159034     1.8338028352
   40      H      -5.8258128568    -1.3296529364     1.1693295073
   41      H      -4.0532420961     1.0636250900    -1.2247878256
   42      H      -1.6245227582     1.2300452974    -1.3627943173
   43      H      -0.6336759289     2.6243770550     0.3073774409
   44      H       1.0653714009     4.4198559595     0.2904873712
 ----------------------------------------------------------------
 Molecular Point Group                 C1    NOp =  1
 Largest Abelian Subgroup              C1    NOp =  1
 Nuclear Repulsion Energy =        2266.40612569 hartrees
 There are       95 alpha and       95 beta electrons
 Requested basis set is 6-31G(d)
 There are 142 shells and 439 basis functions

 Total QAlloc Memory Limit   4000 MB
 Mega-Array Size       188 MB
 MEM_STATIC part       192 MB
 A cutoff of  1.0D-08 yielded   4255 shell pairs
 There are     44139 function pairs
 Smallest overlap matrix eigenvalue = 2.59E-04

 Scale SEOQF with 1.000000e-02/1.000000e-01/1.000000e-01

 Standard Electronic Orientation quadrupole field applied
 Nucleus-field energy     =     0.0000000748 hartrees
 Guess from superposition of atomic densities
 Warning:  Energy on first SCF cycle will be non-variational
 SAD guess density has 190.000000 electrons

 -----------------------------------------------------------------------
  General SCF calculation program by
  Eric Jon Sundstrom, Paul Horn, Yuezhi Mao, Dmitri Zuev, Alec White,
  David Stuck, Shaama M.S., Shane Yost, Joonho Lee, David Small,
  Daniel Levine, Susi Lehtola, Hugh Burton, Evgeny Epifanovsky,
  Bang C. Huynh
 -----------------------------------------------------------------------
 Exchange:     0.2000 Hartree-Fock + 0.0800 Slater + 0.7200 B88
 Correlation:  0.1900 VWN1RPA + 0.8100 LYP
 Using SG-1 standard quadrature grid
 A restricted SCF calculation will be
 performed using DIIS
 SCF converges when DIIS error is below 1.0e-05
 ---------------------------------------
  Cycle       Energy         DIIS error
 ---------------------------------------
    1   -1260.4129386772      3.97e-02  
    2   -1253.0772713361      3.78e-03  
    3   -1252.9058719496      4.68e-03  
    4   -1253.3967612560      1.11e-03  
    5   -1253.4245175833      3.69e-04  
    6   -1253.4269807187      2.07e-04  
    7   -1253.4280813166      4.68e-05  
    8   -1253.4281240302      2.16e-05  
    9   -1253.4281355866      3.93e-06  Convergence criterion met
 ---------------------------------------
 SCF time:   CPU 140.58s  wall 141.00s 
 SCF   energy in the final basis set =    -1253.4281355866
 Total energy in the final basis set =    -1253.4281355866
 
 --------------------------------------------------------------
 
                    Orbital Energies (a.u.)
 --------------------------------------------------------------
 
 Alpha MOs
 -- Occupied --
-24.7470 -24.7361 -19.1700 -19.1698 -14.3792 -10.3590 -10.2368 -10.2367
-10.2356 -10.2354 -10.2354 -10.2148 -10.2147 -10.2102 -10.2060 -10.1982
-10.1960 -10.1959 -10.1952 -10.1866 -10.1864 -10.1843 -10.1839 -10.1819
-10.1817 -10.1795 -10.1793  -1.2875  -1.2265  -1.0599  -1.0597  -0.9981
 -0.8794  -0.8501  -0.8462  -0.8117  -0.7840  -0.7639  -0.7533  -0.7517
 -0.7314  -0.7296  -0.6963  -0.6887  -0.6492  -0.6317  -0.6279  -0.6177
 -0.5896  -0.5834  -0.5816  -0.5739  -0.5449  -0.5382  -0.5279  -0.5211
 -0.5187  -0.5051  -0.4911  -0.4825  -0.4666  -0.4656  -0.4654  -0.4620
 -0.4560  -0.4482  -0.4431  -0.4394  -0.4369  -0.4338  -0.4198  -0.4181
 -0.4152  -0.4103  -0.4090  -0.4042  -0.3913  -0.3822  -0.3796  -0.3693
 -0.3604  -0.3552  -0.3519  -0.3452  -0.3302  -0.3164  -0.3156  -0.3090
 -0.2889  -0.2677  -0.2638  -0.2362  -0.2279  -0.2001  -0.1801
 -- Virtual --
 -0.0347  -0.0246  -0.0096   0.0209   0.0390   0.0491   0.0671   0.0826
  0.0929   0.1082   0.1127   0.1152   0.1178   0.1336   0.1385   0.1461
  0.1541   0.1566   0.1589   0.1596   0.1609   0.1683   0.1717   0.1734
  0.1777   0.1848   0.1940   0.1955   0.1996   0.2060   0.2081   0.2134
  0.2347   0.2527   0.2765   0.2768   0.2812   0.2904   0.2911   0.3099
  0.3225   0.3290   0.3504   0.3531   0.3676   0.3939   0.3974   0.4098
  0.4135   0.4201   0.4546   0.4715   0.4773   0.4897   0.4952   0.5102
  0.5146   0.5226   0.5269   0.5311   0.5318   0.5347   0.5371   0.5410
  0.5438   0.5510   0.5549   0.5579   0.5623   0.5641   0.5677   0.5746
  0.5813   0.5822   0.5833   0.5855   0.5899   0.5921   0.5986   0.6034
  0.6189   0.6200   0.6234   0.6327   0.6335   0.6393   0.6442   0.6508
  0.6513   0.6568   0.6724   0.6876   0.7018   0.7179   0.7256   0.7289
  0.7437   0.7518   0.7556   0.7750   0.7902   0.7950   0.8022   0.8133
  0.8237   0.8298   0.8343   0.8416   0.8483   0.8502   0.8530   0.8539
  0.8633   0.8691   0.8745   0.8770   0.8804   0.8878   0.8972   0.9056
  0.9132   0.9230   0.9331   0.9409   0.9443   0.9476   0.9554   0.9747
  0.9813   0.9855   0.9916   0.9980   1.0033   1.0213   1.0331   1.0349
  1.0558   1.0591   1.0612   1.0734   1.0787   1.1082   1.1172   1.1300
  1.1394   1.1511   1.1524   1.1584   1.1651   1.1787   1.1875   1.2008
  1.2094   1.2218   1.2278   1.2342   1.2477   1.2617   1.2695   1.2740
  1.2873   1.3049   1.3323   1.3343   1.3392   1.3502   1.3653   1.3794
  1.3841   1.3851   1.3896   1.4015   1.4098   1.4349   1.4401   1.4421
  1.4444   1.4620   1.4631   1.4686   1.4783   1.4843   1.4876   1.4928
  1.5053   1.5203   1.5284   1.5327   1.5394   1.5639   1.5997   1.6079
  1.6292   1.6475   1.6804   1.7047   1.7113   1.7209   1.7319   1.7626
  1.7692   1.7796   1.7805   1.7860   1.7899   1.8119   1.8197   1.8333
  1.8344   1.8494   1.8613   1.8683   1.8765   1.8852   1.8859   1.8952
  1.9008   1.9086   1.9146   1.9264   1.9320   1.9363   1.9682   1.9798
  1.9843   1.9923   2.0009   2.0120   2.0204   2.0239   2.0302   2.0342
  2.0525   2.0560   2.0672   2.0705   2.0800   2.0904   2.1151   2.1196
  2.1236   2.1297   2.1365   2.1418   2.1441   2.1541   2.1563   2.1890
  2.2059   2.2183   2.2310   2.2359   2.2370   2.2450   2.2637   2.2734
  2.2769   2.2777   2.2965   2.2994   2.3193   2.3467   2.3517   2.3542
  2.3555   2.3585   2.3720   2.4053   2.4275   2.4341   2.4672   2.4823
  2.5128   2.5215   2.5295   2.5348   2.5715   2.5827   2.6072   2.6165
  2.6211   2.6269   2.6398   2.6580   2.6597   2.6701   2.6845   2.6971
  2.7040   2.7286   2.7439   2.7532   2.7588   2.7730   2.7965   2.8139
  2.8176   2.8592   2.8739   2.8919   2.9111   2.9376   2.9549   2.9702
  2.9927   3.0103   3.0565   3.1216   3.1441   3.1555   3.2015   3.2861
  3.3150   3.3898   3.4151   3.4973   3.5774   4.0603   4.0701   4.0740
  4.1017   4.1094   4.1242   4.1413   4.1427   4.1716   4.1880   4.2340
  4.2341   4.2717   4.2872   4.3452   4.3516   4.3677   4.4244   4.4842
  4.5301   4.5716   4.5757   4.7322   4.8108   4.8450   4.9152   5.2864
 --------------------------------------------------------------
 
          Ground-State Mulliken Net Atomic Charges

     Atom                 Charge (a.u.)
  ----------------------------------------
      1 C                    -0.207878
      2 O                    -0.512888
      3 C                     0.371082
      4 C                    -0.278234
      5 C                     0.057591
      6 C                     0.056848
      7 C                    -0.278452
      8 C                     0.371227
      9 O                    -0.512940
     10 C                    -0.208019
     11 C                    -0.186184
     12 C                    -0.171957
     13 C                     0.306119
     14 N                    -0.741601
     15 C                     0.294857
     16 C                    -0.163953
     17 C                    -0.208792
     18 C                     0.203716
     19 C                    -0.299667
     20 C                     0.543679
     21 F                    -0.234797
     22 F                    -0.247878
     23 C                    -0.208748
     24 C                    -0.164562
     25 C                     0.305562
     26 C                    -0.171726
     27 C                    -0.186100
     28 H                     0.166476
     29 H                     0.146418
     30 H                     0.146316
     31 H                     0.127399
     32 H                     0.127498
     33 H                     0.166473
     34 H                     0.146404
     35 H                     0.146509
     36 H                     0.134669
     37 H                     0.141680
     38 H                     0.153438
     39 H                     0.134061
     40 H                     0.160515
     41 H                     0.144543
     42 H                     0.153868
     43 H                     0.142429
     44 H                     0.134998
  ----------------------------------------
  Sum of atomic charges =     0.000000

 -----------------------------------------------------------------
                    Cartesian Multipole Moments
 -----------------------------------------------------------------
    Charge (ESU x 10^10)
                 0.0000
    Dipole Moment (Debye)
         X       1.6917      Y      -0.3705      Z       0.4318
       Tot       1.7848
    Quadrupole Moments (Debye-Ang)
        XX    -130.9318     XY       4.9775     YY    -152.7987
        XZ      -4.0799     YZ      -3.6776     ZZ    -153.8753
    Octopole Moments (Debye-Ang^2)
       XXX     172.8382    XXY      -2.5378    XYY     -24.2650
       YYY       9.9536    XXZ       7.2313    XYZ      10.2755
       YYZ       0.1620    XZZ     -36.3276    YZZ      -0.8176
       ZZZ      -9.4105
    Hexadecapole Moments (Debye-Ang^3)
      XXXX  -11933.3716   XXXY      59.9216   XXYY   -2587.7539
      XYYY      26.5203   YYYY   -4777.8926   XXXZ     -89.1268
      XXYZ     -27.9141   XYYZ     -10.3860   YYYZ     -13.4336
      XXZZ   -2124.9738   XYZZ       1.8589   YYZZ    -867.2655
      XZZZ      50.4615   YZZZ     -20.3523   ZZZZ    -367.6187
 -----------------------------------------------------------------
Archival summary:
1\1\nia1977.scinet.local\SP\ProcedureUnspecified\6-31G*\2212217\rhickman\MonFeb718:44:152022MonFeb718:44:152022\0\\#,ProcedureUnspecified,6-31G*,\\0,1\N\C,1,1.38378\C,1,1.384,2,108.049\C,2,1.38895,1,130.017,3,-176.653,0\H,4,1.07894,2,121.481,1,-0.863613,0\C,4,1.37682,2,118.108,1,178.233,0\H,6,1.07826,4,120.632,2,179.794,0\C,3,1.38895,1,130.017,2,-176.664,0\H,8,1.07887,3,121.498,1,-0.953878,0\C,8,1.37677,3,118.097,1,178.178,0\H,10,1.07823,8,120.622,3,179.787,0\C,1,1.39456,2,126,3,-179.598,0\C,12,1.39448,1,120.519,2,-133.023,0\H,13,1.07925,12,119.39,1,1.59022,0\C,13,1.37869,12,120.629,1,-179.661,0\H,15,1.07745,13,118.883,12,-179.675,0\C,12,1.39451,1,120.473,2,47.0436,0\H,17,1.07929,12,119.541,1,1.28219,0\C,17,1.3777,12,120.167,1,179.994,0\H,19,1.08019,17,119.392,12,-179.658,0\C,15,1.39719,13,120.747,12,-0.325069,0\C,6,1.40396,4,121.856,2,-0.515603,0\O,22,1.36745,6,114.863,4,179.537,0\C,22,1.38439,6,120.296,4,-1.03012,0\H,24,1.07795,22,122.123,6,-178.552,0\C,24,1.39155,22,118.359,6,1.00709,0\C,10,1.40399,8,121.864,3,-0.511445,0\O,27,1.36736,10,114.863,8,179.608,0\C,27,1.38437,10,120.297,8,-0.977109,0\H,29,1.07795,27,122.129,10,-178.601,0\C,29,1.3916,27,118.353,10,0.959228,0\C,28,1.40477,27,118.275,10,179.778,0\H,32,1.08895,28,105.768,27,179.515,0\H,32,1.09535,28,111.592,27,60.8349,0\H,32,1.0954,28,111.594,27,-61.8303,0\C,23,1.4048,22,118.269,6,179.76,0\H,36,1.08895,23,105.769,22,179.555,0\H,36,1.09536,23,111.598,22,-61.7867,0\H,36,1.09536,23,111.588,22,60.8775,0\C,21,1.45211,15,123.645,13,-179.963,0\H,40,1.08063,21,116.458,15,179.249,0\C,40,1.32542,21,128.58,15,-0.893863,0\F,42,1.32819,40,128.119,21,0.0484568,0\F,42,1.33254,40,123.052,21,-179.906,0\\\@

 Total job time:  141.90s(wall), 141.06s(cpu) 
 Mon Feb  7 18:44:15 2022

        *************************************************************
        *                                                           *
        *  Thank you very much for using Q-Chem.  Have a nice day.  *
        *                                                           *
        *************************************************************


