20
 energy: -30.398311361299 gnorm: 0.000035491740 xtb: 6.4.1 (23d549d)
C         3.87801796950000   -0.17295012160000   -0.09643253050000
C         2.76623981530000   -0.88654441200000    0.02835406990000
C         1.43125830660000   -0.30455243810000    0.02768625590000
C         0.29042331030000   -1.11299907900000    0.15736978460000
C        -0.96143912580000   -0.52782636890000    0.13611254680000
C        -2.16201431900000   -1.35241003810000    0.21589649430000
C        -3.31809218100000   -1.10503337250000   -0.38770416330000
C        -0.96561301520000    0.89132994990000    0.04835621600000
N        -2.11174500840000    1.63046345980000    0.05384508240000
N         0.16266801550000    1.58774975300000   -0.07494981820000
N         1.31910699860000    1.01278784370000   -0.10607791680000
H         4.85234292570000   -0.63058833450000   -0.09308444440000
H         3.82674603720000    0.89622033290000   -0.20629293210000
H         2.80210375190000   -1.96329448330000    0.13895349620000
H         0.38988148620000   -2.18642723440000    0.24493753410000
H        -2.04284552950000   -2.26302371140000    0.79181285390000
H        -3.46305967130000   -0.25136849170000   -1.02782993260000
H        -4.15003164320000   -1.78315740290000   -0.29785793190000
H        -2.92232965990000    1.23504468210000    0.50180598030000
H        -1.96382168460000    2.62051954660000    0.17011629430000
