
Running Job 1 of 1 fragments/B014/conf-4/spe_input.inp
qchem fragments/B014/conf-4/spe_input.inp_365853.0 /gpfs/fs0/scratch/a/aspuru/rhickman/descriptor_computation/qchem365853/ 0
/scinet/niagara/software/commercial/qc52/exe/qcprog.exe_s fragments/B014/conf-4/spe_input.inp_365853.0 /gpfs/fs0/scratch/a/aspuru/rhickman/descriptor_computation/qchem365853/
                  Welcome to Q-Chem
     A Quantum Leap Into The Future Of Chemistry


 Q-Chem 5.2, Q-Chem, Inc., Pleasanton, CA (2019)

 License issued to: SRG Alan Aspuru-Guzik, University of Toronto

 Yihan Shao,  Zhengting Gan,  E. Epifanovsky,  A. T. B. Gilbert,  M. Wormit,  
 J. Kussmann,  A. W. Lange,  A. Behn,  Jia Deng,  Xintian Feng,  D. Ghosh,  
 M. Goldey,  P. R. Horn,  L. D. Jacobson,  I. Kaliman,  T. Kus,  A. Landau,  
 Jie Liu,  E. I. Proynov,  R. M. Richard,  R. P. Steele,  E. J. Sundstrom,  
 H. L. Woodcock III,  P. M. Zimmerman,  D. Zuev,  B. Albrecht,  E. Alguire,  
 S. A. Baeppler,  D. Barton,  Z. Benda,  Y. A. Bernard,  E. J. Berquist,  
 K. B. Bravaya,  H. Burton,  D. Casanova,  Chun-Min Chang,  Yunqing Chen,  
 A. Chien,  K. D. Closser,  M. P. Coons,  S. Coriani,  S. Dasgupta,  
 A. L. Dempwolff,  M. Diedenhofen,  Hainam Do,  R. G. Edgar,  Po-Tung Fang,  
 S. Faraji,  S. Fatehi,  Qingguo Feng,  K. D. Fenk,  J. Fosso-Tande,  
 J. Gayvert,  Qinghui Ge,  A. Ghysels,  G. Gidofalvi,  J. Gomes,  
 J. Gonthier,  A. Gunina,  D. Hait,  M. W. D. Hanson-Heine,  
 P. H. P. Harbach,  A. W. Hauser,  M. F. Herbst,  J. E. Herr,  
 E. G. Hohenstein,  Z. C. Holden,  Kerwin Hui,  B. C. Huynh,  T.-C. Jagau,  
 Hyunjun Ji,  B. Kaduk,  K. Khistyaev,  Jaehoon Kim,  P. Klunzinger,  K. Koh,  
 D. Kosenkov,  L. Koulias,  T. Kowalczyk,  C. M. Krauter,  A. Kunitsa,  
 Ka Un Lao,  A. Laurent,  K. V. Lawler,  Joonho Lee,  D. Lefrancois,  
 S. Lehtola,  D. S. Levine,  Yi-Pei Li,  You-Sheng Lin,  Fenglai Liu,  
 E. Livshits,  A. Luenser,  P. Manohar,  E. Mansoor,  S. F. Manzer,  
 Shan-Ping Mao,  Yuezhi Mao,  N. Mardirossian,  A. V. Marenich,  
 T. Markovich,  L. A. Martinez-Martinez,  S. A. Maurer,  N. J. Mayhall,  
 S. C. McKenzie,  J.-M. Mewes,  P. Morgante,  A. F. Morrison,  
 J. W. Mullinax,  K. Nanda,  T. S. Nguyen-Beck,  R. Olivares-Amaya,  
 J. A. Parkhill,  Zheng Pei,  T. M. Perrine,  F. Plasser,  P. Pokhilko,  
 S. Prager,  A. Prociuk,  E. Ramos,  D. R. Rehn,  F. Rob,  M. Scheurer,  
 M. Schneider,  N. Sergueev,  S. M. Sharada,  S. Sharma,  D. W. Small,  
 T. Stauch,  T. Stein,  Yu-Chuan Su,  A. J. W. Thom,  A. Tkatchenko,  
 T. Tsuchimochi,  N. M. Tubman,  L. Vogt,  M. L. Vidal,  O. Vydrov,  
 M. A. Watson,  J. Wenzel,  M. de Wergifosse,  T. A. Wesolowski,  A. White,  
 J. Witte,  A. Yamada,  Jun Yang,  K. Yao,  S. Yeganeh,  S. R. Yost,  
 Zhi-Qiang You,  A. Zech,  Igor Ying Zhang,  Xing Zhang,  Yan Zhao,  
 Ying Zhu,  B. R. Brooks,  G. K. L. Chan,  C. J. Cramer,  M. S. Gordon,  
 W. J. Hehre,  A. Klamt,  M. W. Schmidt,  C. D. Sherrill,  D. G. Truhlar,  
 A. Aspuru-Guzik,  R. Baer,  A. T. Bell,  N. A. Besley,  Jeng-Da Chai,  
 A. E. DePrince, III,  R. A. DiStasio Jr.,  A. Dreuw,  B. D. Dunietz,  
 T. R. Furlani,  Chao-Ping Hsu,  Yousung Jung,  Jing Kong,  D. S. Lambrecht,  
 WanZhen Liang,  C. Ochsenfeld,  V. A. Rassolov,  L. V. Slipchenko,  
 J. E. Subotnik,  T. Van Voorhis,  J. M. Herbert,  A. I. Krylov,  
 P. M. W. Gill,  M. Head-Gordon

 Contributors to earlier versions of Q-Chem not listed above: 
 R. D. Adamson,  B. Austin,  J. Baker,  G. J. O. Beran,  K. Brandhorst,  
 S. T. Brown,  E. F. C. Byrd,  A. K. Chakraborty,  C.-L. Cheng,  
 Siu Hung Chien,  D. M. Chipman,  D. L. Crittenden,  H. Dachsel,  
 R. J. Doerksen,  A. D. Dutoi,  L. Fusti-Molnar,  W. A. Goddard III,  
 A. Golubeva-Zadorozhnaya,  S. R. Gwaltney,  G. Hawkins,  A. Heyden,  
 S. Hirata,  G. Kedziora,  F. J. Keil,  C. Kelley,  Jihan Kim,  R. A. King,  
 R. Z. Khaliullin,  P. P. Korambath,  W. Kurlancheek,  A. M. Lee,  M. S. Lee,  
 S. V. Levchenko,  Ching Yeh Lin,  D. Liotard,  R. C. Lochan,  I. Lotan,  
 P. E. Maslen,  N. Nair,  D. P. O'Neill,  D. Neuhauser,  E. Neuscamman,  
 C. M. Oana,  R. Olson,  B. Peters,  R. Peverati,  P. A. Pieniazek,  
 Y. M. Rhee,  J. Ritchie,  M. A. Rohrdanz,  E. Rosta,  N. J. Russ,  
 H. F. Schaefer III,  N. E. Schultz,  N. Shenvi,  A. C. Simmonett,  A. Sodt,  
 D. Stuck,  K. S. Thanthiriwatte,  V. Vanovschi,  Tao Wang,  A. Warshel,  
 C. F. Williams,  Q. Wu,  X. Xu,  W. Zhang

 Please cite Q-Chem as follows:
 Y. Shao et al., Mol. Phys. 113, 184-215 (2015)
 DOI: 10.1080/00268976.2014.952696

 Q-Chem 5.2.1 for Intel X86 EM64T Linux

 Parts of Q-Chem use Armadillo 8.300.2 (Tropical Shenanigans).
 http://arma.sourceforge.net/

 Q-Chem begins on Tue Feb  8 16:56:28 2022  

Host: 
0

     Scratch files written to /gpfs/fs0/scratch/a/aspuru/rhickman/descriptor_computation/qchem365853//
 Jul1719 |scratch|qcdevops|jenkins|workspace|build_RNUM -1
Processing $rem in /scinet/niagara/software/commercial/qc52/config/preferences:
	 MEM_TOTAL  4000 
NAlpha2: 102
NElect   102
Mult     1

Checking the input file for inconsistencies... 	...done.

--------------------------------------------------------------
User input:
--------------------------------------------------------------
$molecule
0 1
C         4.36009541660000   -1.23717296060000   -0.11912793160000
C         3.10571402680000   -1.63360379220000    0.05675406080000
C         1.91135947550000   -0.79500072930000    0.04097847170000
C         0.66439572360000   -1.40901324210000    0.04754638660000
C        -0.51301795230000   -0.66010277600000    0.02512635000000
C        -1.77761123430000   -1.38056929460000    0.02792666140000
C        -3.00717782050000   -0.88997816270000   -0.00525857160000
F        -3.38419553960000    0.38094323690000   -0.04896146420000
F        -4.09552892010000   -1.65999542280000    0.00037512030000
C        -0.42751129430000    0.72669230150000    0.00396364140000
C         0.81703520700000    1.35674095890000    0.00549275930000
O         0.77856322570000    2.71664518380000   -0.00980102890000
C         1.99164739860000    3.42873654460000   -0.01123563080000
C         1.97961799370000    0.59947993900000    0.02336896180000
H         5.17605062520000   -1.93879455550000   -0.09464546790000
H         4.63105598260000   -0.21128317310000   -0.30110575210000
H         2.90932623580000   -2.68659361500000    0.21719416680000
H         0.60588870920000   -2.48750553120000    0.06441187140000
H        -1.71642981060000   -2.45892698050000    0.05925696500000
H        -1.30315686780000    1.35234148630000   -0.00993657690000
H         1.71396897600000    4.48140591920000   -0.02732979510000
H         2.59149256310000    3.20065160010000   -0.89842957970000
H         2.57971435990000    3.22483991960000    0.88962583360000
H         2.94458193210000    1.07737059590000    0.03388876810000
$end

$rem
BASIS = 6-31G*
GUI = 2
METHOD = B3LYP
PRINT_ORBITALS false
MOLDEN_FORMAT false
--------------------------------------------------------------
 ----------------------------------------------------------------
             Standard Nuclear Orientation (Angstroms)
    I     Atom           X                Y                Z
 ----------------------------------------------------------------
    1      C       3.8631178381     2.1272825047     0.1203781862
    2      C       2.5527706479     2.2497455925    -0.0515450053
    3      C       1.5633332415     1.1769735462    -0.0388755234
    4      C       0.2145485598     1.5127577704    -0.0402680191
    5      C      -0.7773260981     0.5311951237    -0.0204704881
    6      C      -2.1658927405     0.9672566905    -0.0174697282
    7      C      -3.2634578940     0.2270299444     0.0146239869
    8      F      -3.3624308647    -1.0951373067     0.0516593545
    9      F      -4.4902962216     0.7488863524     0.0148304160
   10      C      -0.3997822812    -0.8060580483    -0.0072623030
   11      C       0.9500183595    -1.1579838157    -0.0140540228
   12      O       1.2006862858    -2.4952049626    -0.0063931390
   13      C       2.5371356635    -2.9339923650    -0.0106418118
   14      C       1.9256407605    -0.1714277587    -0.0292403224
   15      H       4.5117645818     2.9860284379     0.0987453422
   16      H       4.3458166081     1.1811961625     0.2961847343
   17      H       2.1372610338     3.2380093824    -0.2057630362
   18      H      -0.0712545021     2.5544177249    -0.0509582963
   19      H      -2.3347350576     2.0342296323    -0.0427890240
   20      H      -1.1228920118    -1.6031552395     0.0042994507
   21      H       2.4889170696    -4.0216694031    -0.0001171475
   22      H       3.0772577598    -2.5885941432     0.8770057848
   23      H       3.0663422917    -2.6053720133    -0.9111399916
   24      H       2.9699393736    -0.4338673585    -0.0437803326
 ----------------------------------------------------------------
 Molecular Point Group                 C1    NOp =  1
 Largest Abelian Subgroup              C1    NOp =  1
 Nuclear Repulsion Energy =         834.64600602 hartrees
 There are       51 alpha and       51 beta electrons
 Requested basis set is 6-31G(d)
 There are 76 shells and 230 basis functions

 Total QAlloc Memory Limit   4000 MB
 Mega-Array Size       188 MB
 MEM_STATIC part       192 MB
 A cutoff of  1.0D-08 yielded   1832 shell pairs
 There are     17822 function pairs
 Smallest overlap matrix eigenvalue = 3.67E-04

 Scale SEOQF with 1.000000e-01/1.000000e-01/1.000000e+00

 Standard Electronic Orientation quadrupole field applied
 Nucleus-field energy     =     0.0000000425 hartrees
 Guess from superposition of atomic densities
 Warning:  Energy on first SCF cycle will be non-variational
 SAD guess density has 102.000000 electrons

 -----------------------------------------------------------------------
  General SCF calculation program by
  Eric Jon Sundstrom, Paul Horn, Yuezhi Mao, Dmitri Zuev, Alec White,
  David Stuck, Shaama M.S., Shane Yost, Joonho Lee, David Small,
  Daniel Levine, Susi Lehtola, Hugh Burton, Evgeny Epifanovsky,
  Bang C. Huynh
 -----------------------------------------------------------------------
 Exchange:     0.2000 Hartree-Fock + 0.0800 Slater + 0.7200 B88
 Correlation:  0.1900 VWN1RPA + 0.8100 LYP
 Using SG-1 standard quadrature grid
 A restricted SCF calculation will be
 performed using DIIS
 SCF converges when DIIS error is below 1.0e-05
 ---------------------------------------
  Cycle       Energy         DIIS error
 ---------------------------------------
    1    -703.1513389565      5.26e-02  
    2    -699.8093155690      5.82e-03  
    3    -699.6319043661      7.75e-03  
    4    -700.0202635310      1.60e-03  
    5    -700.0366081395      5.22e-04  
    6    -700.0379986086      2.53e-04  
    7    -700.0384239759      5.35e-05  
    8    -700.0384413022      1.96e-05  
    9    -700.0384436604      5.21e-06  Convergence criterion met
 ---------------------------------------
 SCF time:   CPU 32.53s  wall 33.00s 
 SCF   energy in the final basis set =     -700.0384436604
 Total energy in the final basis set =     -700.0384436604
 
 --------------------------------------------------------------
 
                    Orbital Energies (a.u.)
 --------------------------------------------------------------
 
 Alpha MOs
 -- Occupied --
-24.7429 -24.7321 -19.1782 -10.3552 -10.2471 -10.2408 -10.2057 -10.2011
-10.1977 -10.1918 -10.1841 -10.1832 -10.1815 -10.1810  -1.2839  -1.2226
 -1.0692  -0.8684  -0.8140  -0.7864  -0.7492  -0.7295  -0.6995  -0.6487
 -0.6254  -0.5964  -0.5747  -0.5640  -0.5329  -0.5173  -0.5125  -0.4917
 -0.4777  -0.4723  -0.4573  -0.4428  -0.4391  -0.4360  -0.4285  -0.4098
 -0.4014  -0.3892  -0.3752  -0.3622  -0.3566  -0.3372  -0.3279  -0.3173
 -0.2603  -0.2179  -0.2169
 -- Virtual --
 -0.0385  -0.0069   0.0447   0.0877   0.0928   0.0977   0.1157   0.1193
  0.1396   0.1490   0.1539   0.1662   0.1673   0.1741   0.1913   0.2013
  0.2077   0.2220   0.2781   0.2890   0.3075   0.3125   0.3496   0.3808
  0.3900   0.4152   0.4538   0.4730   0.4986   0.5046   0.5181   0.5199
  0.5363   0.5400   0.5438   0.5557   0.5638   0.5744   0.5854   0.5868
  0.5927   0.6108   0.6237   0.6273   0.6385   0.6451   0.6534   0.6886
  0.6977   0.7082   0.7452   0.7676   0.7834   0.7886   0.8184   0.8332
  0.8462   0.8490   0.8654   0.8678   0.8845   0.8912   0.9235   0.9347
  0.9411   0.9557   0.9628   0.9892   1.0146   1.0351   1.0506   1.0730
  1.0970   1.1077   1.1180   1.1326   1.1559   1.1626   1.1950   1.2118
  1.2174   1.2484   1.2565   1.2831   1.3171   1.3251   1.3425   1.3564
  1.3773   1.4055   1.4088   1.4372   1.4492   1.4631   1.4771   1.4875
  1.5080   1.5271   1.5298   1.5512   1.5770   1.6498   1.6768   1.7112
  1.7319   1.7786   1.7840   1.7871   1.8217   1.8352   1.8387   1.8683
  1.8832   1.8968   1.9066   1.9520   1.9539   1.9585   1.9740   1.9884
  1.9955   2.0034   2.0285   2.0324   2.0384   2.0906   2.1075   2.1138
  2.1432   2.1542   2.1820   2.2096   2.2292   2.2444   2.2652   2.2707
  2.2982   2.3264   2.3335   2.3689   2.3841   2.4553   2.4840   2.5234
  2.5254   2.5702   2.5751   2.6260   2.6365   2.6492   2.6738   2.7056
  2.7205   2.7672   2.8381   2.8528   2.9186   2.9434   2.9963   3.0543
  3.1066   3.1458   3.1993   3.3436   3.4889   4.0553   4.0802   4.0942
  4.1263   4.1524   4.2142   4.2393   4.2709   4.3564   4.4978   4.5107
  4.7715   4.8389   5.2983
 --------------------------------------------------------------
 
          Ground-State Mulliken Net Atomic Charges

     Atom                 Charge (a.u.)
  ----------------------------------------
      1 C                    -0.354621
      2 C                    -0.110464
      3 C                     0.180661
      4 C                    -0.281491
      5 C                     0.207265
      6 C                    -0.298765
      7 C                     0.546249
      8 F                    -0.232438
      9 F                    -0.249930
     10 C                    -0.255284
     11 C                     0.394000
     12 O                    -0.508528
     13 C                    -0.213286
     14 C                    -0.263857
     15 H                     0.144979
     16 H                     0.140845
     17 H                     0.128079
     18 H                     0.122480
     19 H                     0.158936
     20 H                     0.144796
     21 H                     0.170251
     22 H                     0.150777
     23 H                     0.151840
     24 H                     0.127505
  ----------------------------------------
  Sum of atomic charges =     0.000000

 -----------------------------------------------------------------
                    Cartesian Multipole Moments
 -----------------------------------------------------------------
    Charge (ESU x 10^10)
                 0.0000
    Dipole Moment (Debye)
         X       2.1156      Y       0.1856      Z      -0.0344
       Tot       2.1240
    Quadrupole Moments (Debye-Ang)
        XX     -74.6651     XY      -5.4737     YY     -72.2802
        XZ       0.2917     YZ      -0.3274     ZZ     -82.2032
    Octopole Moments (Debye-Ang^2)
       XXX      -0.2658    XXY     -18.7025    XYY       0.2715
       YYY     -11.7263    XXZ       1.7636    XYZ      -0.2340
       YYZ      -1.3703    XZZ     -24.3593    YZZ     -10.2822
       ZZZ       0.5909
    Hexadecapole Moments (Debye-Ang^3)
      XXXX   -2962.7274   XXXY     -26.3238   XXYY    -646.6612
      XYYY     -53.9253   YYYY   -1248.7850   XXXZ       9.1112
      XXYZ       1.0729   XYYZ      -2.8736   YYYZ      -5.3321
      XXZZ    -520.1818   XYZZ     -15.6135   YYZZ    -253.3232
      XZZZ      -2.8891   YZZZ      -0.7013   ZZZZ     -86.6319
 -----------------------------------------------------------------
Archival summary:
1\1\nia2015.scinet.local\SP\ProcedureUnspecified\6-31G*\211110\rhickman\TueFeb816:57:012022TueFeb816:57:012022\0\\#,ProcedureUnspecified,6-31G*,\\0,1\F\C,1,1.32638\C,2,1.32424,1,128.296\H,3,1.08055,2,115.025,1,-179.891,0\F,2,1.33322,1,108.754,3,-179.953,0\C,3,1.45543,2,128.559,1,-0.0138581,0\C,6,1.38959,3,123.197,2,0.953722,0\H,7,1.07628,6,122.024,3,0.112176,0\C,7,1.39494,6,120.374,3,179.855,0\O,9,1.36053,7,115.228,6,-179.693,0\C,9,1.38757,7,120.069,6,0.231681,0\H,11,1.07687,9,120.579,7,-179.431,0\C,6,1.39559,3,117.864,2,-179.175,0\H,13,1.08021,6,119.362,3,0.102751,0\C,13,1.38995,6,121.315,3,179.734,0\C,10,1.40664,9,118.792,7,-179.914,0\H,16,1.0888,10,105.635,9,179.84,0\H,16,1.09496,10,111.596,9,-61.5792,0\H,16,1.09497,10,111.581,9,61.2692,0\C,15,1.45945,13,118.704,6,-179.612,0\H,20,1.0831,15,114.321,13,-8.42448,0\C,20,1.32724,15,126.897,13,170.637,0\H,22,1.07641,20,121.246,15,-179.651,0\H,22,1.07656,20,123.018,15,-0.144003,0\\\@

 Total job time:  32.82s(wall), 32.71s(cpu) 
 Tue Feb  8 16:57:01 2022

        *************************************************************
        *                                                           *
        *  Thank you very much for using Q-Chem.  Have a nice day.  *
        *                                                           *
        *************************************************************


