
Running Job 1 of 1 tidas/B035/conf-2/spe_input.inp
qchem tidas/B035/conf-2/spe_input.inp_248077.0 /home/a/aspuru/seifridm/acdc_laser/descriptor_computation/qchem248077/ 0
/gpfs/fs1/scinet/niagara/software/commercial/qc54/exe/qcprog.exe_s tidas/B035/conf-2/spe_input.inp_248077.0 /home/a/aspuru/seifridm/acdc_laser/descriptor_computation/qchem248077/
                  Welcome to Q-Chem
     A Quantum Leap Into The Future Of Chemistry


 Q-Chem 5.4, Q-Chem, Inc., Pleasanton, CA (2021)

 License issued to: SRG Alan Aspuru-Guzik, University of Toronto

 E. Epifanovsky,  A. T. B. Gilbert,  Xintian Feng,  Joonho Lee,  Yuezhi Mao,  
 N. Mardirossian,  P. Pokhilko,  A. White,  M. Wormit,  M. P. Coons,  
 A. L. Dempwolff,  Zhengting Gan,  D. Hait,  P. R. Horn,  L. D. Jacobson,  
 I. Kaliman,  J. Kussmann,  A. W. Lange,  Ka Un Lao,  D. S. Levine,  Jie Liu,  
 S. C. McKenzie,  A. F. Morrison,  K. Nanda,  F. Plasser,  D. R. Rehn,  
 M. L. Vidal,  Zhi-Qiang You,  Ying Zhu,  B. Alam,  B. Albrecht,  
 A. Aldossary,  E. Alguire,  J. H. Andersen,  D. Barton,  K. Begam,  A. Behn,  
 Y. A. Bernard,  E. J. Berquist,  H. Burton,  A. Carreras,  K. Carter-Fenk,  
 Romit Chakraborty,  A. D. Chien,  K. D. Closser,  V. Cofer-Shabica,  
 S. Dasgupta,  Jia Deng,  M. de Wergifosse,  M. Diedenhofen,  Hainam Do,  
 S. Ehlert,  Po-Tung Fang,  S. Fatehi,  Qingguo Feng,  T. Friedhoff,  
 J. Gayvert,  Qinghui Ge,  G. Gidofalvi,  M. Goldey,  J. Gomes,  
 C. Gonzalez-Espinoza,  S. Gulania,  A. Gunina,  M. W. D. Hanson-Heine,  
 P. H. P. Harbach,  A. W. Hauser,  M. F. Herbst,  M. Hernandez Vera,  
 M. Hodecker,  Z. C. Holden,  S. Houck,  Xunkun Huang,  Kerwin Hui,  
 B. C. Huynh,  M. Ivanov,  Hyunjun Ji,  Hanjie Jiang,  B. Kaduk,  S. Kaehler,  
 K. Khistyaev,  Jaehoon Kim,  P. Klunzinger,  Z. Koczor-Benda,  
 Joong Hoon Koh,  D. Kosenkov,  L. Koulias,  T. Kowalczyk,  C. M. Krauter,  
 K. Kue,  A. Kunitsa,  T. Kus,  A. Landau,  K. V. Lawler,  D. Lefrancois,  
 S. Lehtola,  Rain Li,  Yi-Pei Li,  Jiashu Liang,  M. Liebenthal,  
 Hung-Hsuan Lin,  You-Sheng Lin,  Fenglai Liu,  Kuan-Yu Liu,  
 M. Loipersberger,  A. Luenser,  A. Manjanath,  P. Manohar,  E. Mansoor,  
 S. F. Manzer,  Shan-Ping Mao,  A. V. Marenich,  T. Markovich,  S. Mason,  
 S. A. Maurer,  P. F. McLaughlin,  M. F. S. J. Menger,  J.-M. Mewes,  
 S. A. Mewes,  P. Morgante,  J. W. Mullinax,  K. J. Oosterbaan,  G. Paran,  
 Alexander C. Paul,  Suranjan K. Paul,  F. Pavosevic,  Zheng Pei,  S. Prager,  
 E. I. Proynov,  E. Ramos,  B. Rana,  A. E. Rask,  A. Rettig,  R. M. Richard,  
 F. Rob,  E. Rossomme,  T. Scheele,  M. Scheurer,  M. Schneider,  
 N. Sergueev,  S. M. Sharada,  W. Skomorowski,  D. W. Small,  C. J. Stein,  
 Yu-Chuan Su,  E. J. Sundstrom,  Zhen Tao,  J. Thirman,  T. Tsuchimochi,  
 N. M. Tubman,  S. P. Veccham,  O. Vydrov,  J. Wenzel,  J. Witte,  A. Yamada,  
 Kun Yao,  S. Yeganeh,  S. R. Yost,  A. Zech,  Igor Ying Zhang,  Xing Zhang,  
 Yu Zhang,  D. Zuev,  A. Aspuru-Guzik,  A. T. Bell,  N. A. Besley,  
 K. B. Bravaya,  B. R. Brooks,  D. Casanova,  Jeng-Da Chai,  S. Coriani,  
 C. J. Cramer,  A. E. DePrince, III,  R. A. DiStasio Jr.,  A. Dreuw,  
 B. D. Dunietz,  T. R. Furlani,  W. A. Goddard III,  S. Grimme,  
 S. Hammes-Schiffer,  T. Head-Gordon,  W. J. Hehre,  Chao-Ping Hsu,  
 T.-C. Jagau,  Yousung Jung,  A. Klamt,  Jing Kong,  D. S. Lambrecht,  
 WanZhen Liang,  N. J. Mayhall,  C. W. McCurdy,  J. B. Neaton,  T. Neudecker,  
 C. Ochsenfeld,  J. A. Parkhill,  R. Peverati,  V. A. Rassolov,  Yihan Shao,  
 L. V. Slipchenko,  R. P. Steele,  J. E. Subotnik,  A. J. W. Thom,  
 A. Tkatchenko,  D. G. Truhlar,  T. Van Voorhis,  T. A. Wesolowski,  
 K. B. Whaley,  H. L. Woodcock III,  P. M. Zimmerman,  S. Faraji,  
 P. M. W. Gill,  M. Head-Gordon,  J. M. Herbert,  A. I. Krylov

 Additional authors since Version 5.4.0: 
 Chandrima Chakravarty,  L. Cunha,  R. Kang,  Yongbin Kim,  S. Kotaru,  
 Shaozhi Li,  Xiangyuan Li,  F. Matz,  A. Molle,  V. Parravicini,  
 Haisheng Ren,  Hengyuan Shen,  Yingli Su,  Hung-Yi Tsai,  C. Utku,  
 Fang Wang,  Jeff Yang,  F. Zeller

 Contributors to earlier versions of Q-Chem not listed above: 
 R. D. Adamson,  B. Austin,  R. Baer,  J. Baker,  G. J. O. Beran,  
 K. Brandhorst,  S. T. Brown,  E. F. C. Byrd,  Arup K. Chakraborty,  
 G. K. L. Chan,  Chun-Min Chang,  Yunqing Chen,  C.-L. Cheng,  
 Siu Hung Chien,  D. M. Chipman,  D. L. Crittenden,  H. Dachsel,  
 R. J. Doerksen,  A. D. Dutoi,  R. G. Edgar,  J. Fosso-Tande,  
 L. Fusti-Molnar,  D. Ghosh,  A. Ghysels,  A. Golubeva-Zadorozhnaya,  
 J. Gonthier,  M. S. Gordon,  S. R. Gwaltney,  G. Hawkins,  J. E. Herr,  
 A. Heyden,  S. Hirata,  E. G. Hohenstein,  G. Kedziora,  F. J. Keil,  
 C. Kelley,  Jihan Kim,  R. A. King,  R. Z. Khaliullin,  P. P. Korambath,  
 W. Kurlancheek,  A. Laurent,  A. M. Lee,  M. S. Lee,  S. V. Levchenko,  
 Ching Yeh Lin,  D. Liotard,  E. Livshits,  R. C. Lochan,  I. Lotan,  
 L. A. Martinez-Martinez,  P. E. Maslen,  N. Nair,  D. P. O'Neill,  
 D. Neuhauser,  E. Neuscamman,  C. M. Oana,  R. Olivares-Amaya,  R. Olson,  
 T. M. Perrine,  B. Peters,  P. A. Pieniazek,  A. Prociuk,  Y. M. Rhee,  
 J. Ritchie,  M. A. Rohrdanz,  E. Rosta,  N. J. Russ,  H. F. Schaefer III,  
 M. W. Schmidt,  N. E. Schultz,  S. Sharma,  N. Shenvi,  C. D. Sherrill,  
 A. C. Simmonett,  A. Sodt,  T. Stein,  D. Stuck,  K. S. Thanthiriwatte,  
 V. Vanovschi,  L. Vogt,  Tao Wang,  A. Warshel,  M. A. Watson,  
 C. F. Williams,  Q. Wu,  X. Xu,  Jun Yang,  W. Zhang,  Yan Zhao

   Please cite Q-Chem as follows:
  "Software for the frontiers of quantum chemistry:
   An overview of developments in the Q-Chem 5 package"
   J. Chem. Phys. 155, 084801 (2021)
   https://doi.org/10.1063/5.0055522 (open access)

 Q-Chem 5.4.2 for Intel X86 EM64T Linux

 Parts of Q-Chem use Armadillo 9.900.5 (Nocturnal Misbehaviour).
 http://arma.sourceforge.net/

 Q-Chem begins on Fri Aug 12 12:44:35 2022  

 Host: 
0

     Scratch files written to /home/a/aspuru/seifridm/acdc_laser/descriptor_computation/qchem248077//
 Dec1321 |scratch|qcdevops|jenkins|workspace|build_RNUM 6959   
 Processing $rem in /gpfs/fs1/scinet/niagara/software/commercial/qc54/config/preferences:
 Processing $rem in /home/a/aspuru/seifridm/.qchemrc:

 Checking the input file for inconsistencies... 	...done.

--------------------------------------------------------------
User input:
--------------------------------------------------------------
$molecule
0 1
C           -1.14654762870000       -3.79715877900000       -0.29542842820000
C           -1.21351080930000       -2.54816418220000        0.14668485440000
C           -0.13864783520000       -1.56380684970000        0.02964488260000
C            1.19047805900000       -1.96444248790000        0.10528277740000
C            2.23595097870000       -1.06197508690000        0.04889556360000
C            1.96431619960000        0.29567098760000       -0.08627727140000
O            2.89997363010000        1.27872593650000       -0.15565776600000
C            4.25913207890000        0.92184267990000       -0.08451931650000
C            0.63801755970000        0.71631236450000       -0.16630063810000
C           -0.41213894650000       -0.18829378260000       -0.11019692270000
C           -1.79311826980000        0.26446814280000       -0.25670720170000
C           -2.27498918000000        1.44874954620000        0.08349731450000
F           -1.62802631170000        2.45518635100000        0.65765104550000
F           -3.54872077590000        1.79994519120000       -0.09432154230000
H           -1.96378887850000       -4.48581334470000       -0.16647879680000
H           -0.28321979800000       -4.17534499860000       -0.81671046180000
H           -2.11366653470000       -2.20938882250000        0.64282116910000
H            1.41364278700000       -3.01245791450000        0.23617125980000
H            3.24877844430000       -1.42591043220000        0.11757608720000
H            4.81281540140000        1.85622923860000       -0.16024715280000
H            4.54621919470000        0.26391483810000       -0.91121809450000
H            4.49845670170000        0.43670259650000        0.86727069630000
H            0.45676989560000        1.77089025740000       -0.29226777570000
H           -2.50332844220000       -0.42444171820000       -0.68806096220000
$end

$rem
BASIS = 6-31G*
GUI = 2
METHOD = B3LYP
PRINT_ORBITALS false
MOLDEN_FORMAT false
$end
--------------------------------------------------------------
 ----------------------------------------------------------------
             Standard Nuclear Orientation (Angstroms)
    I     Atom           X                Y                Z
 ----------------------------------------------------------------
    1      C      -0.8605726736    -3.8316445055    -0.1502733618
    2      C      -1.0563354294    -2.5782743352     0.2378965555
    3      C      -0.0791265494    -1.4997696636     0.0969050512
    4      C       1.2806186029    -1.7661728963     0.2106067955
    5      C       2.2352505825    -0.7695173706     0.1331723059
    6      C       1.8369082650     0.5488222658    -0.0632049162
    7      O       2.6747574102     1.6144407758    -0.1587638719
    8      C       4.0602665718     1.3942811420    -0.0509115396
    9      C       0.4781380797     0.8352185083    -0.1820820166
   10      C      -0.4809431537    -0.1640298129    -0.1049161171
   11      C      -1.8958902675     0.1463289420    -0.2924384431
   12      C      -2.4962765860     1.2909836824    -0.0100151382
   13      F      -1.9608626835     2.3777258598     0.5316968654
   14      F      -3.7940887803     1.5094856495    -0.2228307950
   15      H      -1.6101215497    -4.5906045973    -0.0056620200
   16      H       0.0454264107    -4.1449319404    -0.6413042780
   17      H      -1.9946852316    -2.3087648163     0.7048704146
   18      H       1.6009964140    -2.7814705400     0.3889305966
   19      H       3.2768362395    -1.0303956511     0.2333085479
   20      H       4.5228071608     2.3741798122    -0.1568972343
   21      H       4.4258729885     0.7345985242    -0.8445548590
   22      H       4.3260836868     0.9733322846     0.9241190881
   23      H       0.1987436120     1.8613077457    -0.3550923520
   24      H      -2.5276804910    -0.6250363518    -0.7058366160
 ----------------------------------------------------------------
 Molecular Point Group                 C1    NOp =  1
 Largest Abelian Subgroup              C1    NOp =  1
 Nuclear Repulsion Energy =         845.19315196 hartrees
 There are       51 alpha and       51 beta electrons
 Requested basis set is 6-31G(d)
 There are 76 shells and 230 basis functions

 Total QAlloc Memory Limit   8000 MB
 Mega-Array Size       188 MB
 MEM_STATIC part       192 MB
 A cutoff of  1.0D-08 yielded   1836 shell pairs
 There are     18101 function pairs
 Smallest overlap matrix eigenvalue = 3.41E-04

 Scale SEOQF with 1.000000e-01/1.000000e-01/1.000000e+00

 Standard Electronic Orientation quadrupole field applied
 Nucleus-field energy     =     0.0000000352 hartrees
 Guess from superposition of atomic densities
 Warning:  Energy on first SCF cycle will be non-variational
 SAD guess density has 102.000000 electrons

 -----------------------------------------------------------------------
  General SCF calculation program by
  Eric Jon Sundstrom, Paul Horn, Yuezhi Mao, Dmitri Zuev, Alec White,
  David Stuck, Shaama M.S., Shane Yost, Joonho Lee, David Small,
  Daniel Levine, Susi Lehtola, Hugh Burton, Evgeny Epifanovsky,
  Bang C. Huynh
 -----------------------------------------------------------------------
 Exchange:     0.2000 Hartree-Fock + 0.0800 Slater + 0.7200 B88
 Correlation:  0.1900 VWN1RPA + 0.8100 LYP
 Using SG-1 standard quadrature grid
 A restricted SCF calculation will be
 performed using DIIS
 SCF converges when DIIS error is below 1.0e-05
 ---------------------------------------
  Cycle       Energy         DIIS error
 ---------------------------------------
    1    -703.1454199938      5.26e-02  
    2    -699.8057516727      5.82e-03  
    3    -699.6345472903      7.71e-03  
    4    -700.0164377653      1.60e-03  
    5    -700.0320802514      5.71e-04  
    6    -700.0337757844      2.64e-04  
    7    -700.0342496229      5.19e-05  
    8    -700.0342654550      1.88e-05  
    9    -700.0342679510      4.52e-06  Convergence criterion met
 ---------------------------------------
 SCF time:   CPU 50.02s  wall 53.00s 
 SCF   energy in the final basis set =     -700.0342679510
 Total energy in the final basis set =     -700.0342679510
 
 --------------------------------------------------------------
 
                    Orbital Energies (a.u.)
 --------------------------------------------------------------
 
 Alpha MOs
 -- Occupied --
-24.7400 -24.7319 -19.1795 -10.3547 -10.2465 -10.2415 -10.2044 -10.1990
-10.1895 -10.1886 -10.1882 -10.1858 -10.1809 -10.1781  -1.2821  -1.2213
 -1.0704  -0.8689  -0.8050  -0.7923  -0.7470  -0.7329  -0.6930  -0.6446
 -0.6226  -0.6001  -0.5724  -0.5575  -0.5399  -0.5181  -0.5128  -0.4885
 -0.4761  -0.4730  -0.4492  -0.4389  -0.4368  -0.4342  -0.4280  -0.4162
 -0.4055  -0.3908  -0.3828  -0.3638  -0.3478  -0.3320  -0.3267  -0.2919
 -0.2742  -0.2285  -0.2069
 -- Virtual --
 -0.0286  -0.0130   0.0531   0.0638   0.0969   0.1083   0.1159   0.1329
  0.1410   0.1468   0.1541   0.1612   0.1663   0.1713   0.1857   0.2028
  0.2055   0.2219   0.2592   0.2862   0.3143   0.3317   0.3449   0.3644
  0.3791   0.4173   0.4383   0.4658   0.4903   0.5058   0.5102   0.5260
  0.5331   0.5452   0.5539   0.5641   0.5672   0.5701   0.5782   0.5814
  0.5977   0.6135   0.6227   0.6254   0.6492   0.6536   0.6724   0.6941
  0.6954   0.7156   0.7253   0.7407   0.7883   0.7990   0.8254   0.8341
  0.8490   0.8581   0.8599   0.8654   0.8725   0.8850   0.9150   0.9336
  0.9420   0.9624   0.9648   0.9867   1.0068   1.0211   1.0301   1.0479
  1.0579   1.0724   1.0922   1.1104   1.1554   1.1802   1.1849   1.1932
  1.2228   1.2301   1.2457   1.2551   1.2915   1.3063   1.3351   1.3705
  1.3732   1.3819   1.4080   1.4248   1.4431   1.4485   1.4692   1.4893
  1.4994   1.5205   1.5392   1.5696   1.6470   1.6531   1.6847   1.6997
  1.7269   1.7557   1.7780   1.8027   1.8259   1.8397   1.8429   1.8526
  1.8644   1.8904   1.9004   1.9395   1.9503   1.9695   1.9809   2.0033
  2.0105   2.0281   2.0423   2.0478   2.0580   2.0833   2.0983   2.1231
  2.1400   2.1480   2.1815   2.2102   2.2294   2.2330   2.2616   2.2754
  2.3097   2.3246   2.3353   2.3654   2.3889   2.4441   2.4759   2.5233
  2.5284   2.5607   2.5667   2.5930   2.6449   2.6505   2.6900   2.6979
  2.7419   2.7620   2.8153   2.8274   2.9094   2.9711   3.0107   3.0299
  3.0635   3.1370   3.1927   3.3238   3.4833   4.0574   4.0940   4.1062
  4.1197   4.1353   4.2067   4.2522   4.3103   4.3587   4.4208   4.5430
  4.7639   4.8205   5.2500
 --------------------------------------------------------------
 
          Ground-State Mulliken Net Atomic Charges

     Atom                 Charge (a.u.)
  ----------------------------------------
      1 C                    -0.341803
      2 C                    -0.132796
      3 C                     0.100413
      4 C                    -0.197954
      5 C                    -0.194488
      6 C                     0.385785
      7 O                    -0.504115
      8 C                    -0.215177
      9 C                    -0.251558
     10 C                     0.129764
     11 C                    -0.322487
     12 C                     0.557065
     13 F                    -0.233680
     14 F                    -0.248940
     15 H                     0.141470
     16 H                     0.142187
     17 H                     0.137552
     18 H                     0.132033
     19 H                     0.130007
     20 H                     0.170663
     21 H                     0.151279
     22 H                     0.151782
     23 H                     0.141836
     24 H                     0.171164
  ----------------------------------------
  Sum of atomic charges =     0.000000

 -----------------------------------------------------------------
                    Cartesian Multipole Moments
 -----------------------------------------------------------------
    Charge (ESU x 10^10)
                 0.0000
    Dipole Moment (Debye)
         X       2.0165      Y      -1.0531      Z      -0.0494
       Tot       2.2754
    Quadrupole Moments (Debye-Ang)
        XX     -67.6440     XY       3.0809     YY     -77.8873
        XZ       0.2107     YZ      -0.1556     ZZ     -81.4916
    Octopole Moments (Debye-Ang^2)
       XXX      36.1239    XXY      11.3818    XYY      -5.3140
       YYY      22.6988    XXZ       3.0875    XYZ       1.7037
       YYZ      -2.5484    XZZ     -11.7776    YZZ      17.6035
       ZZZ       2.3834
    Hexadecapole Moments (Debye-Ang^3)
      XXXX   -2157.8333   XXXY      43.3225   XXYY    -636.7634
      XYYY     -39.1920   YYYY   -1575.0054   XXXZ      -6.8784
      XXYZ      -1.1976   XYYZ      -3.4116   YYYZ      13.8530
      XXZZ    -412.2166   XYZZ     -23.0621   YYZZ    -305.9414
      XZZZ      -5.1233   YZZZ       9.0125   ZZZZ    -111.7194
 -----------------------------------------------------------------
 Total job time:  53.82s(wall), 50.42s(cpu) 
 Fri Aug 12 12:45:29 2022

        *************************************************************
        *                                                           *
        *  Thank you very much for using Q-Chem.  Have a nice day.  *
        *                                                           *
        *************************************************************


