24
 energy: -42.125329617823 gnorm: 0.000041572738 xtb: 6.5.0 (unknown)
C           -2.11782078990000       -2.26168253130000       -0.41284687290000
C           -1.18234353260000       -2.00234417580000        0.48838727780000
C           -0.03858637080000       -1.11127671620000        0.27936787720000
C            1.21649918970000       -1.54525739430000        0.69447127590000
C            2.36844483140000       -0.82340286090000        0.44499576790000
C            2.28579199220000        0.38151353470000       -0.24513704770000
O            3.34140214410000        1.17576635890000       -0.56914795760000
C            4.63235573380000        0.76648023690000       -0.18663732690000
C            1.03313979220000        0.84510942200000       -0.64061597310000
C           -0.12460882100000        0.13010079120000       -0.37077616210000
C           -1.39749463320000        0.75586139060000       -0.74568984710000
C           -2.45521581240000        0.85531279120000        0.03839104010000
F           -2.57924710420000        0.38513579660000        1.27316451980000
F           -3.58412998510000        1.47214064180000       -0.30973294830000
H           -2.91390905720000       -2.95848971570000       -0.21487011420000
H           -2.12080626430000       -1.79458371620000       -1.38400742550000
H           -1.19146875430000       -2.52257433070000        1.43772304450000
H            1.29399012260000       -2.49073504850000        1.21168678230000
H            3.31581755180000       -1.21026748260000        0.78501728630000
H            5.30595540290000        1.54145654930000       -0.54870221340000
H            4.90313367530000       -0.19033715610000       -0.64449574390000
H            4.72342900800000        0.68849462660000        0.90148377610000
H            0.98041920220000        1.79665177180000       -1.14645876980000
H           -1.45251574460000        1.24921932110000       -1.70438689520000
