23
 energy: -33.937632147685 gnorm: 0.000076170536 xtb: 6.4.1 (23d549d)
C        -3.36132993500000    2.06792342370000    0.04505944430000
C        -2.88236766380000    0.83105517890000    0.06859394240000
C        -1.47662121800000    0.44008574690000    0.01027019380000
C        -0.42045436280000    1.35066459360000   -0.05456177940000
C         0.88008419860000    0.86874401040000   -0.10725169850000
C         2.04887712510000    1.82043670190000   -0.18453429450000
O         3.26654856140000    1.27111094050000    0.25284402560000
C         1.08144490740000   -0.50298247310000   -0.09443014420000
C        -0.02727126180000   -1.34963440510000   -0.02210838320000
C         0.06861439690000   -2.80616474740000    0.00354435980000
C         1.18228571640000   -3.52474216400000   -0.05561756610000
N        -1.26674593270000   -0.87315001820000    0.03082996740000
H        -4.41998386840000    2.25779442170000    0.09159076900000
H        -2.73119724500000    2.93880568880000   -0.02218523430000
H        -3.55442366570000   -0.01373134030000    0.13381929640000
H        -0.60333292670000    2.41351882390000   -0.06255944490000
H         1.81108777200000    2.73840148300000    0.37463560540000
H         2.21528731510000    2.09913752490000   -1.23098720570000
H         3.16686888480000    0.98396367430000    1.16764434450000
H         2.08410663600000   -0.89615821170000   -0.14636789570000
H        -0.89397192010000   -3.29376737130000    0.07662377540000
H         2.16108206100000   -3.08231340290000   -0.13308008480000
H         1.15434151230000   -4.60069807760000   -0.03130111000000
