
Running Job 1 of 1 fragments/C060/conf-0/spe_input.inp
qchem fragments/C060/conf-0/spe_input.inp_217417.0 /gpfs/fs0/scratch/a/aspuru/rhickman/descriptor_computation/qchem217417/ 0
/scinet/niagara/software/commercial/qc52/exe/qcprog.exe_s fragments/C060/conf-0/spe_input.inp_217417.0 /gpfs/fs0/scratch/a/aspuru/rhickman/descriptor_computation/qchem217417/
                  Welcome to Q-Chem
     A Quantum Leap Into The Future Of Chemistry


 Q-Chem 5.2, Q-Chem, Inc., Pleasanton, CA (2019)

 License issued to: SRG Alan Aspuru-Guzik, University of Toronto

 Yihan Shao,  Zhengting Gan,  E. Epifanovsky,  A. T. B. Gilbert,  M. Wormit,  
 J. Kussmann,  A. W. Lange,  A. Behn,  Jia Deng,  Xintian Feng,  D. Ghosh,  
 M. Goldey,  P. R. Horn,  L. D. Jacobson,  I. Kaliman,  T. Kus,  A. Landau,  
 Jie Liu,  E. I. Proynov,  R. M. Richard,  R. P. Steele,  E. J. Sundstrom,  
 H. L. Woodcock III,  P. M. Zimmerman,  D. Zuev,  B. Albrecht,  E. Alguire,  
 S. A. Baeppler,  D. Barton,  Z. Benda,  Y. A. Bernard,  E. J. Berquist,  
 K. B. Bravaya,  H. Burton,  D. Casanova,  Chun-Min Chang,  Yunqing Chen,  
 A. Chien,  K. D. Closser,  M. P. Coons,  S. Coriani,  S. Dasgupta,  
 A. L. Dempwolff,  M. Diedenhofen,  Hainam Do,  R. G. Edgar,  Po-Tung Fang,  
 S. Faraji,  S. Fatehi,  Qingguo Feng,  K. D. Fenk,  J. Fosso-Tande,  
 J. Gayvert,  Qinghui Ge,  A. Ghysels,  G. Gidofalvi,  J. Gomes,  
 J. Gonthier,  A. Gunina,  D. Hait,  M. W. D. Hanson-Heine,  
 P. H. P. Harbach,  A. W. Hauser,  M. F. Herbst,  J. E. Herr,  
 E. G. Hohenstein,  Z. C. Holden,  Kerwin Hui,  B. C. Huynh,  T.-C. Jagau,  
 Hyunjun Ji,  B. Kaduk,  K. Khistyaev,  Jaehoon Kim,  P. Klunzinger,  K. Koh,  
 D. Kosenkov,  L. Koulias,  T. Kowalczyk,  C. M. Krauter,  A. Kunitsa,  
 Ka Un Lao,  A. Laurent,  K. V. Lawler,  Joonho Lee,  D. Lefrancois,  
 S. Lehtola,  D. S. Levine,  Yi-Pei Li,  You-Sheng Lin,  Fenglai Liu,  
 E. Livshits,  A. Luenser,  P. Manohar,  E. Mansoor,  S. F. Manzer,  
 Shan-Ping Mao,  Yuezhi Mao,  N. Mardirossian,  A. V. Marenich,  
 T. Markovich,  L. A. Martinez-Martinez,  S. A. Maurer,  N. J. Mayhall,  
 S. C. McKenzie,  J.-M. Mewes,  P. Morgante,  A. F. Morrison,  
 J. W. Mullinax,  K. Nanda,  T. S. Nguyen-Beck,  R. Olivares-Amaya,  
 J. A. Parkhill,  Zheng Pei,  T. M. Perrine,  F. Plasser,  P. Pokhilko,  
 S. Prager,  A. Prociuk,  E. Ramos,  D. R. Rehn,  F. Rob,  M. Scheurer,  
 M. Schneider,  N. Sergueev,  S. M. Sharada,  S. Sharma,  D. W. Small,  
 T. Stauch,  T. Stein,  Yu-Chuan Su,  A. J. W. Thom,  A. Tkatchenko,  
 T. Tsuchimochi,  N. M. Tubman,  L. Vogt,  M. L. Vidal,  O. Vydrov,  
 M. A. Watson,  J. Wenzel,  M. de Wergifosse,  T. A. Wesolowski,  A. White,  
 J. Witte,  A. Yamada,  Jun Yang,  K. Yao,  S. Yeganeh,  S. R. Yost,  
 Zhi-Qiang You,  A. Zech,  Igor Ying Zhang,  Xing Zhang,  Yan Zhao,  
 Ying Zhu,  B. R. Brooks,  G. K. L. Chan,  C. J. Cramer,  M. S. Gordon,  
 W. J. Hehre,  A. Klamt,  M. W. Schmidt,  C. D. Sherrill,  D. G. Truhlar,  
 A. Aspuru-Guzik,  R. Baer,  A. T. Bell,  N. A. Besley,  Jeng-Da Chai,  
 A. E. DePrince, III,  R. A. DiStasio Jr.,  A. Dreuw,  B. D. Dunietz,  
 T. R. Furlani,  Chao-Ping Hsu,  Yousung Jung,  Jing Kong,  D. S. Lambrecht,  
 WanZhen Liang,  C. Ochsenfeld,  V. A. Rassolov,  L. V. Slipchenko,  
 J. E. Subotnik,  T. Van Voorhis,  J. M. Herbert,  A. I. Krylov,  
 P. M. W. Gill,  M. Head-Gordon

 Contributors to earlier versions of Q-Chem not listed above: 
 R. D. Adamson,  B. Austin,  J. Baker,  G. J. O. Beran,  K. Brandhorst,  
 S. T. Brown,  E. F. C. Byrd,  A. K. Chakraborty,  C.-L. Cheng,  
 Siu Hung Chien,  D. M. Chipman,  D. L. Crittenden,  H. Dachsel,  
 R. J. Doerksen,  A. D. Dutoi,  L. Fusti-Molnar,  W. A. Goddard III,  
 A. Golubeva-Zadorozhnaya,  S. R. Gwaltney,  G. Hawkins,  A. Heyden,  
 S. Hirata,  G. Kedziora,  F. J. Keil,  C. Kelley,  Jihan Kim,  R. A. King,  
 R. Z. Khaliullin,  P. P. Korambath,  W. Kurlancheek,  A. M. Lee,  M. S. Lee,  
 S. V. Levchenko,  Ching Yeh Lin,  D. Liotard,  R. C. Lochan,  I. Lotan,  
 P. E. Maslen,  N. Nair,  D. P. O'Neill,  D. Neuhauser,  E. Neuscamman,  
 C. M. Oana,  R. Olson,  B. Peters,  R. Peverati,  P. A. Pieniazek,  
 Y. M. Rhee,  J. Ritchie,  M. A. Rohrdanz,  E. Rosta,  N. J. Russ,  
 H. F. Schaefer III,  N. E. Schultz,  N. Shenvi,  A. C. Simmonett,  A. Sodt,  
 D. Stuck,  K. S. Thanthiriwatte,  V. Vanovschi,  Tao Wang,  A. Warshel,  
 C. F. Williams,  Q. Wu,  X. Xu,  W. Zhang

 Please cite Q-Chem as follows:
 Y. Shao et al., Mol. Phys. 113, 184-215 (2015)
 DOI: 10.1080/00268976.2014.952696

 Q-Chem 5.2.1 for Intel X86 EM64T Linux

 Parts of Q-Chem use Armadillo 8.300.2 (Tropical Shenanigans).
 http://arma.sourceforge.net/

 Q-Chem begins on Fri Feb  4 12:25:31 2022  

Host: 
0

     Scratch files written to /gpfs/fs0/scratch/a/aspuru/rhickman/descriptor_computation/qchem217417//
 Jul1719 |scratch|qcdevops|jenkins|workspace|build_RNUM -1
Processing $rem in /scinet/niagara/software/commercial/qc52/config/preferences:
	 MEM_TOTAL  4000 
NAlpha2: 86
NElect   86
Mult     1

Checking the input file for inconsistencies... 	...done.

--------------------------------------------------------------
User input:
--------------------------------------------------------------
$molecule
0 1
C         4.11033058660000   -0.13606286170000    0.03842758970000
C         3.08516455900000    0.70812411940000    0.01185778380000
C         1.67318510790000    0.35544350220000    0.00055819990000
C         0.71897440090000    1.37314727400000   -0.01028541270000
C        -0.62818012360000    1.08060689070000   -0.01808008640000
F        -1.47639603080000    2.12825608350000   -0.03694623420000
C        -1.12857638820000   -0.22587282710000   -0.01715537670000
C        -2.53162396120000   -0.61339313650000   -0.02840637600000
C        -3.58838103470000    0.18182755650000    0.10017887490000
C        -0.13768531780000   -1.21796620830000   -0.01305797280000
F        -0.52554485270000   -2.51129083910000   -0.01559204430000
C         1.21403220640000   -0.96215517280000   -0.00224334320000
H         5.12552157460000    0.22085270390000    0.04558492820000
H         3.98727658680000   -1.20504445890000    0.05482819540000
H         3.28081340700000    1.77274805010000   -0.00173541140000
H         1.02035879090000    2.40951533750000   -0.01335755030000
H        -2.68746752740000   -1.67823764430000   -0.14466976400000
H        -3.51835530630000    1.24605264170000    0.23233561340000
H        -4.58354955870000   -0.22881188040000    0.07867901160000
H         1.89582431330000   -1.79625008850000    0.00226585320000
$end

$rem
BASIS = 6-31G*
GUI = 2
METHOD = B3LYP
PRINT_ORBITALS false
MOLDEN_FORMAT false
--------------------------------------------------------------
 ----------------------------------------------------------------
             Standard Nuclear Orientation (Angstroms)
    I     Atom           X                Y                Z
 ----------------------------------------------------------------
    1      C       4.0716351978    -0.1724787171     0.0388864493
    2      C       3.0527313227     0.6791996556     0.0105696580
    3      C       1.6381967287     0.3369170912    -0.0009106439
    4      C       0.6915173800     1.3616076448    -0.0137209731
    5      C      -0.6577525412     1.0789910881    -0.0217526129
    6      F      -1.4982154119     2.1328333419    -0.0425769969
    7      C      -1.1677638597    -0.2237630126    -0.0191568476
    8      C      -2.5736235978    -0.6009500320    -0.0305329807
    9      C      -3.6245536118     0.2022246423     0.0963613773
   10      C      -0.1842131442    -1.2231241241    -0.0131121797
   11      F      -0.5815921803    -2.5135578726    -0.0139388258
   12      C       1.1693475095    -0.9772650564    -0.0020043901
   13      H       5.0894253650     0.1769564710     0.0460219546
   14      H       3.9406986327    -1.2404992154     0.0567960234
   15      H       3.2562272830     1.7423317996    -0.0044901884
   16      H       1.0005326718     2.3957210541    -0.0181659592
   17      H      -2.7372541396    -1.6647872400    -0.1453095414
   18      H      -3.5467508242     1.2660982258     0.2269897151
   19      H      -4.6227108439    -0.2011015585     0.0749721693
   20      H       1.8449718803    -1.8163538390     0.0040670908
 ----------------------------------------------------------------
 Molecular Point Group                 C1    NOp =  1
 Largest Abelian Subgroup              C1    NOp =  1
 Nuclear Repulsion Energy =         651.21721382 hartrees
 There are       43 alpha and       43 beta electrons
 Requested basis set is 6-31G(d)
 There are 64 shells and 196 basis functions

 Total QAlloc Memory Limit   4000 MB
 Mega-Array Size       188 MB
 MEM_STATIC part       192 MB
 A cutoff of  1.0D-08 yielded   1445 shell pairs
 There are     14924 function pairs
 Smallest overlap matrix eigenvalue = 3.63E-04

 Scale SEOQF with 1.000000e-01/1.000000e-01/1.000000e+00

 Standard Electronic Orientation quadrupole field applied
 Nucleus-field energy     =     0.0000000263 hartrees
 Guess from superposition of atomic densities
 Warning:  Energy on first SCF cycle will be non-variational
 SAD guess density has 86.000000 electrons

 -----------------------------------------------------------------------
  General SCF calculation program by
  Eric Jon Sundstrom, Paul Horn, Yuezhi Mao, Dmitri Zuev, Alec White,
  David Stuck, Shaama M.S., Shane Yost, Joonho Lee, David Small,
  Daniel Levine, Susi Lehtola, Hugh Burton, Evgeny Epifanovsky,
  Bang C. Huynh
 -----------------------------------------------------------------------
 Exchange:     0.2000 Hartree-Fock + 0.0800 Slater + 0.7200 B88
 Correlation:  0.1900 VWN1RPA + 0.8100 LYP
 Using SG-1 standard quadrature grid
 A restricted SCF calculation will be
 performed using DIIS
 SCF converges when DIIS error is below 1.0e-05
 ---------------------------------------
  Cycle       Energy         DIIS error
 ---------------------------------------
    1    -588.1427786323      5.65e-02  
    2    -585.3458704742      5.84e-03  
    3    -585.2928725625      6.69e-03  
    4    -585.4997136581      1.58e-03  
    5    -585.5120726012      4.69e-04  
    6    -585.5130365833      1.95e-04  
    7    -585.5132130451      2.96e-05  
    8    -585.5132152189      2.15e-05  
    9    -585.5132174847      2.20e-06  Convergence criterion met
 ---------------------------------------
 SCF time:   CPU 26.16s  wall 27.00s 
 SCF   energy in the final basis set =     -585.5132174847
 Total energy in the final basis set =     -585.5132174847
 
 --------------------------------------------------------------
 
                    Orbital Energies (a.u.)
 --------------------------------------------------------------
 
 Alpha MOs
 -- Occupied --
-24.7159 -24.7138 -10.2821 -10.2810 -10.2148 -10.2128 -10.2015 -10.1979
-10.1969 -10.1963 -10.1914 -10.1816  -1.2280  -1.2256  -0.8833  -0.8205
 -0.7784  -0.7591  -0.7302  -0.6567  -0.6295  -0.5910  -0.5846  -0.5356
 -0.5296  -0.5036  -0.4926  -0.4764  -0.4667  -0.4601  -0.4526  -0.4338
 -0.4223  -0.4079  -0.3868  -0.3748  -0.3736  -0.3659  -0.3423  -0.3279
 -0.2764  -0.2509  -0.2205
 -- Virtual --
 -0.0563   0.0000   0.0156   0.0833   0.0859   0.1027   0.1167   0.1327
  0.1519   0.1592   0.1858   0.1925   0.1962   0.2185   0.2258   0.2700
  0.2914   0.3142   0.3293   0.3470   0.3848   0.4071   0.4239   0.4513
  0.4690   0.4928   0.5138   0.5222   0.5313   0.5509   0.5597   0.5680
  0.5717   0.5761   0.5973   0.6171   0.6203   0.6239   0.6358   0.6517
  0.6805   0.6917   0.6999   0.7124   0.7251   0.8116   0.8177   0.8222
  0.8264   0.8471   0.8546   0.8737   0.8808   0.9002   0.9139   0.9307
  0.9546   0.9699   0.9729   1.0136   1.0509   1.0680   1.1022   1.1286
  1.1451   1.1946   1.2024   1.2105   1.2295   1.2384   1.2523   1.2895
  1.3057   1.3257   1.3345   1.3893   1.4155   1.4283   1.4335   1.4431
  1.4627   1.4873   1.5032   1.5104   1.5335   1.5679   1.6602   1.6668
  1.7150   1.7381   1.7492   1.7917   1.8004   1.8089   1.8199   1.8631
  1.8722   1.8934   1.9196   1.9377   1.9450   1.9540   1.9657   1.9970
  2.0002   2.0731   2.0805   2.1155   2.1321   2.1347   2.1759   2.1996
  2.2187   2.2227   2.2546   2.2797   2.3354   2.3429   2.3638   2.3828
  2.4065   2.4235   2.4656   2.4908   2.5474   2.6159   2.6393   2.6444
  2.6627   2.6780   2.7025   2.7453   2.8518   2.8922   2.9109   3.0502
  3.0712   3.0980   3.1695   3.3148   3.4690   4.0630   4.0793   4.0857
  4.1311   4.1496   4.2204   4.3049   4.3283   4.5173   4.7195   5.3732
  5.5240
 --------------------------------------------------------------
 
          Ground-State Mulliken Net Atomic Charges

     Atom                 Charge (a.u.)
  ----------------------------------------
      1 C                    -0.346214
      2 C                    -0.115907
      3 C                     0.194378
      4 C                    -0.281764
      5 C                     0.334981
      6 F                    -0.289182
      7 C                     0.018614
      8 C                    -0.103437
      9 C                    -0.352623
     10 C                     0.322066
     11 F                    -0.291015
     12 C                    -0.265557
     13 H                     0.151342
     14 H                     0.149019
     15 H                     0.135132
     16 H                     0.145126
     17 H                     0.147186
     18 H                     0.160995
     19 H                     0.143840
     20 H                     0.143022
  ----------------------------------------
  Sum of atomic charges =     0.000000

 -----------------------------------------------------------------
                    Cartesian Multipole Moments
 -----------------------------------------------------------------
    Charge (ESU x 10^10)
                -0.0000
    Dipole Moment (Debye)
         X       1.2984      Y       0.2870      Z       0.0259
       Tot       1.3300
    Quadrupole Moments (Debye-Ang)
        XX     -59.4784     XY       1.1031     YY     -66.6700
        XZ      -0.0608     YZ       0.2935     ZZ     -70.7961
    Octopole Moments (Debye-Ang^2)
       XXX      -7.0506    XXY      -4.1766    XYY       5.2794
       YYY       3.8292    XXZ       0.8909    XYZ      -1.3228
       YYZ      -0.0586    XZZ      -7.9289    YZZ      -1.3753
       ZZZ      -0.6934
    Hexadecapole Moments (Debye-Ang^3)
      XXXX   -1938.6219   XXXY      -3.8259   XXYY    -438.4186
      XYYY      -6.2239   YYYY    -654.5461   XXXZ      -0.3607
      XXYZ       2.8120   XYYZ       0.0560   YYYZ       0.2492
      XXZZ    -408.9061   XYZZ      -6.6470   YYZZ    -121.0102
      XZZZ       0.7647   YZZZ      -0.3393   ZZZZ     -69.0980
 -----------------------------------------------------------------
Archival summary:
1\1\nia0001.scinet.local\SP\ProcedureUnspecified\6-31G*\2108\rhickman\FriFeb412:25:582022FriFeb412:25:582022\0\\#,ProcedureUnspecified,6-31G*,\\0,1\F\C,1,1.34811\C,2,1.37857,1,116.745\H,3,1.07931,2,118.465,1,0.373502,0\C,3,1.39512,2,120.905,1,-179.59,0\C,5,1.39531,3,117.63,2,0.251984,0\H,6,1.0773,5,121.524,3,179.789,0\C,6,1.37575,5,119.929,3,-0.109407,0\F,8,1.35023,6,117.41,5,179.986,0\C,2,1.39903,1,120.045,3,-179.539,0\C,5,1.4554,3,119.134,2,-179.85,0\H,11,1.08254,5,114.428,3,-0.730416,0\C,11,1.32828,5,126.507,3,179.165,0\H,13,1.07613,11,121.161,5,-179.953,0\H,13,1.07617,11,122.913,5,-0.00346287,0\C,10,1.45562,2,126.396,1,-0.326322,0\H,16,1.08245,10,113.672,2,173.087,0\C,16,1.32878,10,127.336,2,-7.70493,0\H,18,1.07468,16,123.554,10,0.00901904,0\H,18,1.07678,16,120.321,10,-179.78,0\\\@

 Total job time:  26.62s(wall), 26.32s(cpu) 
 Fri Feb  4 12:25:58 2022

        *************************************************************
        *                                                           *
        *  Thank you very much for using Q-Chem.  Have a nice day.  *
        *                                                           *
        *************************************************************


