38
 energy: -62.839860919509 gnorm: 0.000032715582 xtb: 6.4.1 (23d549d)
F         6.51588017030000    0.41487259790000   -0.09025503310000
C         5.23631241050000    0.07872885640000    0.08441336210000
F         5.18256815390000   -1.05447719820000    0.77793958610000
C         4.22837709320000    0.80126585550000   -0.38392626510000
C         2.80418357000000    0.55244073460000   -0.26717575350000
C         1.92146638070000    1.46180810160000   -0.85825091310000
C         0.55842346800000    1.28678364870000   -0.78774939160000
C         0.01925805440000    0.18728425030000   -0.11400133620000
N        -1.35742455350000    0.00483113120000   -0.03685242450000
C        -1.90212721800000   -1.28761460230000   -0.02566944540000
C        -1.36278215150000   -2.29032442700000   -0.83016511070000
C        -1.90686114700000   -3.56003146910000   -0.81585962190000
C        -2.99706997680000   -3.84724740050000   -0.01092140550000
C        -3.53990027340000   -2.85233206860000    0.78552367160000
C        -2.99784087520000   -1.58166140490000    0.78440698030000
C        -2.21672127640000    1.11088156540000    0.02999314990000
C        -3.43404884160000    1.09788584930000   -0.64933487910000
C        -4.28364315290000    2.18455993940000   -0.57379543620000
C        -3.93265453150000    3.29919546790000    0.17002604090000
C        -2.72330335890000    3.31717953480000    0.84543943520000
C        -1.87058122810000    2.23216966090000    0.78284115430000
C         0.89668682000000   -0.72414483480000    0.48025780740000
C         2.25991360510000   -0.54628952430000    0.40403312400000
H         4.51869380300000    1.69162447410000   -0.92335069220000
H         2.31736888310000    2.31499380960000   -1.38966507680000
H        -0.10319574000000    1.99660672180000   -1.26167348220000
H        -0.51972755120000   -2.06510244860000   -1.46688210440000
H        -1.48142226190000   -4.32799568590000   -1.44482033060000
H        -3.42129485960000   -4.83968699520000   -0.00503152840000
H        -4.38736755350000   -3.06859338150000    1.41911048120000
H        -3.41706358770000   -0.80866208480000    1.41175380990000
H        -3.70547102920000    0.23240069740000   -1.23591538870000
H        -5.22302791270000    2.16336633880000   -1.10626016710000
H        -4.59761821980000    4.14763713340000    0.22412632590000
H        -2.44495363860000    4.17912647990000    1.43368945760000
H        -0.93339773540000    2.24292661840000    1.31995499510000
H         0.49601182120000   -1.57348369590000    1.01330688350000
H         2.90431243230000   -1.26599227310000    0.88128842390000
