
Running Job 1 of 1 fragments/A003/conf-2/spe_input.inp
qchem fragments/A003/conf-2/spe_input.inp_335262.0 /gpfs/fs0/scratch/a/aspuru/rhickman/descriptor_computation/qchem335262/ 0
/scinet/niagara/software/commercial/qc52/exe/qcprog.exe_s fragments/A003/conf-2/spe_input.inp_335262.0 /gpfs/fs0/scratch/a/aspuru/rhickman/descriptor_computation/qchem335262/
                  Welcome to Q-Chem
     A Quantum Leap Into The Future Of Chemistry


 Q-Chem 5.2, Q-Chem, Inc., Pleasanton, CA (2019)

 License issued to: SRG Alan Aspuru-Guzik, University of Toronto

 Yihan Shao,  Zhengting Gan,  E. Epifanovsky,  A. T. B. Gilbert,  M. Wormit,  
 J. Kussmann,  A. W. Lange,  A. Behn,  Jia Deng,  Xintian Feng,  D. Ghosh,  
 M. Goldey,  P. R. Horn,  L. D. Jacobson,  I. Kaliman,  T. Kus,  A. Landau,  
 Jie Liu,  E. I. Proynov,  R. M. Richard,  R. P. Steele,  E. J. Sundstrom,  
 H. L. Woodcock III,  P. M. Zimmerman,  D. Zuev,  B. Albrecht,  E. Alguire,  
 S. A. Baeppler,  D. Barton,  Z. Benda,  Y. A. Bernard,  E. J. Berquist,  
 K. B. Bravaya,  H. Burton,  D. Casanova,  Chun-Min Chang,  Yunqing Chen,  
 A. Chien,  K. D. Closser,  M. P. Coons,  S. Coriani,  S. Dasgupta,  
 A. L. Dempwolff,  M. Diedenhofen,  Hainam Do,  R. G. Edgar,  Po-Tung Fang,  
 S. Faraji,  S. Fatehi,  Qingguo Feng,  K. D. Fenk,  J. Fosso-Tande,  
 J. Gayvert,  Qinghui Ge,  A. Ghysels,  G. Gidofalvi,  J. Gomes,  
 J. Gonthier,  A. Gunina,  D. Hait,  M. W. D. Hanson-Heine,  
 P. H. P. Harbach,  A. W. Hauser,  M. F. Herbst,  J. E. Herr,  
 E. G. Hohenstein,  Z. C. Holden,  Kerwin Hui,  B. C. Huynh,  T.-C. Jagau,  
 Hyunjun Ji,  B. Kaduk,  K. Khistyaev,  Jaehoon Kim,  P. Klunzinger,  K. Koh,  
 D. Kosenkov,  L. Koulias,  T. Kowalczyk,  C. M. Krauter,  A. Kunitsa,  
 Ka Un Lao,  A. Laurent,  K. V. Lawler,  Joonho Lee,  D. Lefrancois,  
 S. Lehtola,  D. S. Levine,  Yi-Pei Li,  You-Sheng Lin,  Fenglai Liu,  
 E. Livshits,  A. Luenser,  P. Manohar,  E. Mansoor,  S. F. Manzer,  
 Shan-Ping Mao,  Yuezhi Mao,  N. Mardirossian,  A. V. Marenich,  
 T. Markovich,  L. A. Martinez-Martinez,  S. A. Maurer,  N. J. Mayhall,  
 S. C. McKenzie,  J.-M. Mewes,  P. Morgante,  A. F. Morrison,  
 J. W. Mullinax,  K. Nanda,  T. S. Nguyen-Beck,  R. Olivares-Amaya,  
 J. A. Parkhill,  Zheng Pei,  T. M. Perrine,  F. Plasser,  P. Pokhilko,  
 S. Prager,  A. Prociuk,  E. Ramos,  D. R. Rehn,  F. Rob,  M. Scheurer,  
 M. Schneider,  N. Sergueev,  S. M. Sharada,  S. Sharma,  D. W. Small,  
 T. Stauch,  T. Stein,  Yu-Chuan Su,  A. J. W. Thom,  A. Tkatchenko,  
 T. Tsuchimochi,  N. M. Tubman,  L. Vogt,  M. L. Vidal,  O. Vydrov,  
 M. A. Watson,  J. Wenzel,  M. de Wergifosse,  T. A. Wesolowski,  A. White,  
 J. Witte,  A. Yamada,  Jun Yang,  K. Yao,  S. Yeganeh,  S. R. Yost,  
 Zhi-Qiang You,  A. Zech,  Igor Ying Zhang,  Xing Zhang,  Yan Zhao,  
 Ying Zhu,  B. R. Brooks,  G. K. L. Chan,  C. J. Cramer,  M. S. Gordon,  
 W. J. Hehre,  A. Klamt,  M. W. Schmidt,  C. D. Sherrill,  D. G. Truhlar,  
 A. Aspuru-Guzik,  R. Baer,  A. T. Bell,  N. A. Besley,  Jeng-Da Chai,  
 A. E. DePrince, III,  R. A. DiStasio Jr.,  A. Dreuw,  B. D. Dunietz,  
 T. R. Furlani,  Chao-Ping Hsu,  Yousung Jung,  Jing Kong,  D. S. Lambrecht,  
 WanZhen Liang,  C. Ochsenfeld,  V. A. Rassolov,  L. V. Slipchenko,  
 J. E. Subotnik,  T. Van Voorhis,  J. M. Herbert,  A. I. Krylov,  
 P. M. W. Gill,  M. Head-Gordon

 Contributors to earlier versions of Q-Chem not listed above: 
 R. D. Adamson,  B. Austin,  J. Baker,  G. J. O. Beran,  K. Brandhorst,  
 S. T. Brown,  E. F. C. Byrd,  A. K. Chakraborty,  C.-L. Cheng,  
 Siu Hung Chien,  D. M. Chipman,  D. L. Crittenden,  H. Dachsel,  
 R. J. Doerksen,  A. D. Dutoi,  L. Fusti-Molnar,  W. A. Goddard III,  
 A. Golubeva-Zadorozhnaya,  S. R. Gwaltney,  G. Hawkins,  A. Heyden,  
 S. Hirata,  G. Kedziora,  F. J. Keil,  C. Kelley,  Jihan Kim,  R. A. King,  
 R. Z. Khaliullin,  P. P. Korambath,  W. Kurlancheek,  A. M. Lee,  M. S. Lee,  
 S. V. Levchenko,  Ching Yeh Lin,  D. Liotard,  R. C. Lochan,  I. Lotan,  
 P. E. Maslen,  N. Nair,  D. P. O'Neill,  D. Neuhauser,  E. Neuscamman,  
 C. M. Oana,  R. Olson,  B. Peters,  R. Peverati,  P. A. Pieniazek,  
 Y. M. Rhee,  J. Ritchie,  M. A. Rohrdanz,  E. Rosta,  N. J. Russ,  
 H. F. Schaefer III,  N. E. Schultz,  N. Shenvi,  A. C. Simmonett,  A. Sodt,  
 D. Stuck,  K. S. Thanthiriwatte,  V. Vanovschi,  Tao Wang,  A. Warshel,  
 C. F. Williams,  Q. Wu,  X. Xu,  W. Zhang

 Please cite Q-Chem as follows:
 Y. Shao et al., Mol. Phys. 113, 184-215 (2015)
 DOI: 10.1080/00268976.2014.952696

 Q-Chem 5.2.1 for Intel X86 EM64T Linux

 Parts of Q-Chem use Armadillo 8.300.2 (Tropical Shenanigans).
 http://arma.sourceforge.net/

 Q-Chem begins on Tue Feb  8 15:17:52 2022  

Host: 
0

     Scratch files written to /gpfs/fs0/scratch/a/aspuru/rhickman/descriptor_computation/qchem335262//
 Jul1719 |scratch|qcdevops|jenkins|workspace|build_RNUM -1
Processing $rem in /scinet/niagara/software/commercial/qc52/config/preferences:
	 MEM_TOTAL  4000 
NAlpha2: 192
NElect   192
Mult     1

Checking the input file for inconsistencies... 	...done.

--------------------------------------------------------------
User input:
--------------------------------------------------------------
$molecule
0 1
C         3.12088442110000   -5.84892933880000   -0.57275499940000
O         2.08216515520000   -5.33971848430000    0.22638154840000
C         1.77270491810000   -4.01577258570000    0.12506836950000
C         2.41401722440000   -3.10501069100000   -0.70687257690000
C         2.01046313370000   -1.78195878710000   -0.73043216650000
C         0.97032171130000   -1.33611807010000    0.07744354660000
N         0.58100408010000    0.01294600310000    0.05805397840000
C        -0.76011396240000    0.36248673840000    0.11831022530000
C        -1.74453846650000   -0.47229938880000   -0.42067469110000
C        -3.07587085890000   -0.12822520570000   -0.36039225980000
C        -3.48310704490000    1.06717368560000    0.23941920290000
C        -4.86642620710000    1.49052731470000    0.33612647620000
C        -5.95611589240000    0.86496013930000   -0.08671264560000
F        -6.04274262680000   -0.30929269320000   -0.70571444890000
F        -7.18626604140000    1.36235997940000    0.06320208410000
C        -2.49482529040000    1.89930857250000    0.77504554460000
C        -1.16309286520000    1.55914391120000    0.71980957220000
C         1.57467676060000    1.00149862550000   -0.02299370790000
C         1.39826168350000    2.12791043680000   -0.82827612050000
C         2.37942923250000    3.08965472940000   -0.90694381420000
C         3.57251733600000    2.95263267470000   -0.19448134010000
O         4.47715189080000    3.96118983330000   -0.34882024170000
C         5.69587818300000    3.88143301930000    0.34774795940000
C         3.75607892700000    1.82708155350000    0.60067924130000
C         2.76332466470000    0.86738221660000    0.68601115830000
C         0.33522701500000   -2.25129346720000    0.91848525080000
C         0.72715119630000   -3.57031630210000    0.93641584800000
H         3.18670067490000   -6.90848175430000   -0.33054308990000
H         4.07760382200000   -5.36688950990000   -0.34563971570000
H         2.90125612460000   -5.73562569560000   -1.63949344230000
H         3.22465656070000   -3.41122232070000   -1.34893251050000
H         2.51094504600000   -1.08375446190000   -1.38504481050000
H        -1.45112908580000   -1.39479794240000   -0.89883335820000
H        -3.80366290120000   -0.79398866920000   -0.79417340160000
H        -5.04594209840000    2.44197995010000    0.81632139100000
H        -2.78365602270000    2.82517042420000    1.25105082490000
H        -0.42009522400000    2.21332880520000    1.15092754950000
H         0.48521354660000    2.24038791230000   -1.39352749990000
H         2.25060015110000    3.96252905900000   -1.52684851160000
H         6.24866057460000    4.78004871430000    0.07835393320000
H         6.27335498110000    2.99988276210000    0.05014112250000
H         5.54034710580000    3.86481811680000    1.43152984660000
H         4.66346330390000    1.68602028380000    1.16627621050000
H         2.91319340560000   -0.00027870120000    1.31143957010000
H        -0.46753684430000   -1.91786938160000    1.55892418870000
H         0.24106721040000   -4.28341291710000    1.58288735320000
$end

$rem
BASIS = 6-31G*
GUI = 2
METHOD = B3LYP
PRINT_ORBITALS false
MOLDEN_FORMAT false
--------------------------------------------------------------
 ----------------------------------------------------------------
             Standard Nuclear Orientation (Angstroms)
    I     Atom           X                Y                Z
 ----------------------------------------------------------------
    1      C      -3.4458982132     5.5953914838    -0.5070712348
    2      O      -2.3686457694     5.1586999965     0.2839283525
    3      C      -1.9595189881     3.8633165676     0.1679120182
    4      C      -2.5323992295     2.9148860449    -0.6718392629
    5      C      -2.0292537689     1.6267714657    -0.7103460821
    6      C      -0.9553836233     1.2532810429     0.0900532594
    7      N      -0.4644360238    -0.0618969899     0.0554809639
    8      C       0.8996229986    -0.3087514339     0.1085187976
    9      C       1.8156938746     0.6041579416    -0.4242802684
   10      C       3.1695791798     0.3620073612    -0.3711330126
   11      C       3.6688085489    -0.8049473357     0.2150242903
   12      C       5.0806973061    -1.1225517363     0.3036249589
   13      C       6.1180733230    -0.4114055803    -0.1155086338
   14      F       6.1128130266     0.7723226312    -0.7223834057
   15      F       7.3830666163    -0.8150626174     0.0259246745
   16      C       2.7486780331    -1.7154730116     0.7445029977
   17      C       1.3947092092    -1.4773026422     0.6963619460
   18      C      -1.3801387032    -1.1224610145    -0.0333050900
   19      C      -1.1211460101    -2.2238190559    -0.8508250357
   20      C      -2.0264152806    -3.2567250507    -0.9369830497
   21      C      -3.2240206043    -3.2183988228    -0.2199686622
   22      O      -4.0496718281    -4.2913664580    -0.3824870517
   23      C      -5.2685302278    -4.3119277051     0.3181010013
   24      C      -3.4901081655    -2.1183400393     0.5874399191
   25      C      -2.5731071762    -1.0866577534     0.6802096613
   26      C      -0.3890079990     2.2055444848     0.9389675180
   27      C      -0.8802696903     3.4905865401     0.9717726383
   28      H      -3.5914537264     6.6442989858    -0.2535828636
   29      H      -4.3623046630     5.0394949969    -0.2824959125
   30      H      -3.2219405660     5.5101159188    -1.5755169564
   31      H      -3.3662232143     3.1649610302    -1.3085045738
   32      H      -2.4773066783     0.8991882415    -1.3709218765
   33      H       1.4511793155     1.5064531931    -0.8919561950
   34      H       3.8430110205     1.0857460424    -0.7998289449
   35      H       5.3338644086    -2.0624211858     0.7733345128
   36      H       3.1088762547    -2.6214486473     1.2100024885
   37      H       0.7052243737    -2.1906292739     1.1225565715
   38      H      -0.2041291322    -2.2605385042    -1.4196386540
   39      H      -1.8335583657    -4.1108278268    -1.5663502077
   40      H      -5.7521307387    -5.2472685574     0.0407569603
   41      H      -5.9125421810    -3.4739735722     0.0312881476
   42      H      -5.1109935536    -4.2946209569     1.4015823453
   43      H      -4.4036553887    -2.0526931838     1.1568840184
   44      H      -2.7865260383    -0.2394140043     1.3151011679
   45      H       0.4390321481     1.9277537935     1.5737472549
   46      H      -0.4477358745     4.2320035019     1.6244021026
 ----------------------------------------------------------------
 Molecular Point Group                 C1    NOp =  1
 Largest Abelian Subgroup              C1    NOp =  1
 Nuclear Repulsion Energy =        2285.02046286 hartrees
 There are       96 alpha and       96 beta electrons
 Requested basis set is 6-31G(d)
 There are 146 shells and 443 basis functions

 Total QAlloc Memory Limit   4000 MB
 Mega-Array Size       188 MB
 MEM_STATIC part       192 MB
 A cutoff of  1.0D-08 yielded   4441 shell pairs
 There are     43257 function pairs
 Smallest overlap matrix eigenvalue = 3.49E-04

 Scale SEOQF with 1.000000e-02/1.000000e-02/1.000000e-01

 Standard Electronic Orientation quadrupole field applied
 Nucleus-field energy     =     0.0000000107 hartrees
 Guess from superposition of atomic densities
 Warning:  Energy on first SCF cycle will be non-variational
 SAD guess density has 192.000000 electrons

 -----------------------------------------------------------------------
  General SCF calculation program by
  Eric Jon Sundstrom, Paul Horn, Yuezhi Mao, Dmitri Zuev, Alec White,
  David Stuck, Shaama M.S., Shane Yost, Joonho Lee, David Small,
  Daniel Levine, Susi Lehtola, Hugh Burton, Evgeny Epifanovsky,
  Bang C. Huynh
 -----------------------------------------------------------------------
 Exchange:     0.2000 Hartree-Fock + 0.0800 Slater + 0.7200 B88
 Correlation:  0.1900 VWN1RPA + 0.8100 LYP
 Using SG-1 standard quadrature grid
 A restricted SCF calculation will be
 performed using DIIS
 SCF converges when DIIS error is below 1.0e-05
 ---------------------------------------
  Cycle       Energy         DIIS error
 ---------------------------------------
    1   -1261.3062753596      3.91e-02  
    2   -1254.2331455503      3.85e-03  
    3   -1254.0600131355      4.71e-03  
    4   -1254.5758437361      1.06e-03  
    5   -1254.6023992771      3.28e-04  
    6   -1254.6041964896      1.94e-04  
    7   -1254.6051761151      5.42e-05  
    8   -1254.6052394472      2.23e-05  
    9   -1254.6052520808      4.57e-06  Convergence criterion met
 ---------------------------------------
 SCF time:   CPU 139.81s  wall 140.00s 
 SCF   energy in the final basis set =    -1254.6052520808
 Total energy in the final basis set =    -1254.6052520808
 
 --------------------------------------------------------------
 
                    Orbital Energies (a.u.)
 --------------------------------------------------------------
 
 Alpha MOs
 -- Occupied --
-24.7348 -24.7240 -19.1762 -19.1759 -14.3612 -10.3448 -10.2423 -10.2420
-10.2400 -10.2397 -10.2230 -10.2186 -10.2184 -10.1943 -10.1926 -10.1866
-10.1864 -10.1857 -10.1855 -10.1855 -10.1853 -10.1845 -10.1827 -10.1824
-10.1817 -10.1792 -10.1790  -1.2744  -1.2140  -1.0662  -1.0660  -0.9748
 -0.8611  -0.8579  -0.8418  -0.7973  -0.7655  -0.7600  -0.7531  -0.7444
 -0.7428  -0.7252  -0.7000  -0.6829  -0.6378  -0.6278  -0.6176  -0.6090
 -0.6020  -0.5957  -0.5715  -0.5620  -0.5428  -0.5400  -0.5308  -0.5204
 -0.5116  -0.5086  -0.4889  -0.4796  -0.4708  -0.4705  -0.4679  -0.4507
 -0.4497  -0.4456  -0.4396  -0.4314  -0.4287  -0.4252  -0.4249  -0.4213
 -0.4154  -0.4138  -0.4103  -0.4015  -0.3846  -0.3819  -0.3799  -0.3759
 -0.3681  -0.3652  -0.3551  -0.3409  -0.3364  -0.3269  -0.3259  -0.3224
 -0.3071  -0.2682  -0.2590  -0.2505  -0.2480  -0.2257  -0.2188  -0.1659
 -- Virtual --
 -0.0210  -0.0116   0.0011   0.0087   0.0137   0.0346   0.0818   0.0925
  0.0955   0.0965   0.1086   0.1099   0.1275   0.1369   0.1411   0.1475
  0.1512   0.1523   0.1554   0.1566   0.1602   0.1650   0.1667   0.1700
  0.1714   0.1786   0.1826   0.1900   0.1964   0.2013   0.2065   0.2086
  0.2124   0.2195   0.2538   0.2582   0.2668   0.2731   0.2908   0.3045
  0.3090   0.3225   0.3358   0.3393   0.3508   0.3556   0.3604   0.3874
  0.3910   0.3963   0.4211   0.4287   0.4754   0.4810   0.4884   0.5056
  0.5071   0.5133   0.5202   0.5252   0.5298   0.5329   0.5402   0.5421
  0.5436   0.5482   0.5508   0.5571   0.5586   0.5633   0.5712   0.5771
  0.5832   0.5862   0.5910   0.5934   0.5945   0.5968   0.5989   0.6009
  0.6045   0.6049   0.6107   0.6124   0.6229   0.6317   0.6341   0.6358
  0.6480   0.6491   0.6625   0.6699   0.6714   0.6798   0.6911   0.7000
  0.7134   0.7206   0.7403   0.7429   0.7433   0.7861   0.8026   0.8069
  0.8133   0.8180   0.8224   0.8339   0.8392   0.8432   0.8476   0.8487
  0.8505   0.8523   0.8536   0.8563   0.8681   0.8740   0.8755   0.8835
  0.8858   0.8916   0.8959   0.9093   0.9172   0.9336   0.9354   0.9510
  0.9535   0.9565   0.9624   0.9750   0.9799   0.9949   1.0091   1.0119
  1.0140   1.0199   1.0315   1.0521   1.0531   1.0577   1.0762   1.0800
  1.1058   1.1136   1.1328   1.1419   1.1521   1.1621   1.1652   1.1695
  1.1745   1.1768   1.1895   1.2155   1.2169   1.2236   1.2337   1.2448
  1.2474   1.2599   1.2686   1.2773   1.2806   1.3072   1.3106   1.3167
  1.3497   1.3538   1.3669   1.3754   1.3785   1.4075   1.4112   1.4200
  1.4207   1.4294   1.4357   1.4398   1.4562   1.4593   1.4679   1.4731
  1.4739   1.4813   1.4934   1.5074   1.5122   1.5186   1.5205   1.5260
  1.5374   1.5467   1.5598   1.6053   1.6546   1.6806   1.6864   1.7131
  1.7197   1.7301   1.7598   1.7707   1.7909   1.7923   1.7963   1.8008
  1.8106   1.8395   1.8405   1.8452   1.8463   1.8526   1.8568   1.8649
  1.8816   1.8890   1.8928   1.8944   1.8980   1.9284   1.9330   1.9355
  1.9455   1.9736   1.9800   1.9932   1.9940   2.0017   2.0103   2.0125
  2.0226   2.0271   2.0422   2.0508   2.0633   2.0743   2.0765   2.0852
  2.0923   2.1005   2.1098   2.1118   2.1136   2.1206   2.1469   2.1581
  2.1606   2.1650   2.1678   2.1733   2.1806   2.1886   2.2431   2.2444
  2.2458   2.2562   2.2601   2.2629   2.2733   2.2863   2.3089   2.3233
  2.3303   2.3364   2.3525   2.3619   2.3641   2.3702   2.3706   2.3782
  2.4374   2.4461   2.4919   2.5197   2.5290   2.5340   2.5360   2.5449
  2.5605   2.5720   2.6032   2.6336   2.6375   2.6447   2.6475   2.6731
  2.6797   2.6837   2.6885   2.6943   2.6997   2.7269   2.7436   2.7704
  2.7842   2.7920   2.7951   2.8187   2.8555   2.8606   2.8750   2.9106
  2.9185   2.9321   2.9758   2.9915   3.0017   3.0332   3.0642   3.1049
  3.1513   3.1771   3.2594   3.2941   3.3420   3.4575   3.4861   3.4952
  4.0602   4.0608   4.0883   4.1222   4.1292   4.1308   4.1397   4.1545
  4.1552   4.1861   4.2446   4.2539   4.2857   4.2926   4.3398   4.3472
  4.3682   4.3814   4.3918   4.4762   4.4906   4.5681   4.7246   4.8076
  4.8107   4.8419   5.2871
 --------------------------------------------------------------
 
          Ground-State Mulliken Net Atomic Charges

     Atom                 Charge (a.u.)
  ----------------------------------------
      1 C                    -0.213315
      2 O                    -0.506901
      3 C                     0.378854
      4 C                    -0.205431
      5 C                    -0.172578
      6 C                     0.273258
      7 N                    -0.656176
      8 C                     0.306674
      9 C                    -0.181613
     10 C                    -0.205603
     11 C                     0.197352
     12 C                    -0.298468
     13 C                     0.533641
     14 F                    -0.239568
     15 F                    -0.254361
     16 C                    -0.205421
     17 C                    -0.182215
     18 C                     0.272921
     19 C                    -0.165743
     20 C                    -0.184410
     21 C                     0.379185
     22 O                    -0.507165
     23 C                    -0.213402
     24 C                    -0.205881
     25 C                    -0.172658
     26 C                    -0.165984
     27 C                    -0.184381
     28 H                     0.168838
     29 H                     0.148308
     30 H                     0.149893
     31 H                     0.131326
     32 H                     0.146273
     33 H                     0.147785
     34 H                     0.137895
     35 H                     0.155056
     36 H                     0.126367
     37 H                     0.146978
     38 H                     0.149259
     39 H                     0.138437
     40 H                     0.168814
     41 H                     0.148519
     42 H                     0.149713
     43 H                     0.131302
     44 H                     0.146475
     45 H                     0.149371
     46 H                     0.138778
  ----------------------------------------
  Sum of atomic charges =     0.000000

 -----------------------------------------------------------------
                    Cartesian Multipole Moments
 -----------------------------------------------------------------
    Charge (ESU x 10^10)
                 0.0000
    Dipole Moment (Debye)
         X      -4.1980      Y       0.0433      Z       0.2100
       Tot       4.2035
    Quadrupole Moments (Debye-Ang)
        XX    -143.9041     XY      -3.9571     YY    -143.0563
        XZ       1.1899     YZ      -7.5057     ZZ    -152.5305
    Octopole Moments (Debye-Ang^2)
       XXX    -152.7240    XXY     -16.8832    XYY     -36.7310
       YYY      35.9633    XXZ      16.7352    XYZ      27.9470
       YYZ     -11.0380    XZZ      21.8862    YZZ       3.1670
       ZZZ      -7.5370
    Hexadecapole Moments (Debye-Ang^3)
      XXXX  -10604.7489   XXXY     194.7278   XXYY   -2368.4103
      XYYY    -197.1763   YYYY   -6418.6215   XXXZ     -43.8544
      XXYZ    -158.8246   XYYZ      39.2021   YYYZ    -159.1668
      XXZZ   -1821.5991   XYZZ      -0.8881   YYZZ   -1185.0311
      XZZZ     -34.7747   YZZZ       6.5381   ZZZZ    -507.2655
 -----------------------------------------------------------------
Archival summary:
1\1\nia2015.scinet.local\SP\ProcedureUnspecified\6-31G*\2212219\rhickman\TueFeb815:20:132022TueFeb815:20:132022\0\\#,ProcedureUnspecified,6-31G*,\\0,1\N\C,1,1.38723\C,2,1.39864,1,120.851\H,3,1.07975,2,119.46,1,-0.610429,0\C,3,1.3756,2,120.516,1,179.962,0\H,5,1.08038,3,119.237,2,179.549,0\C,5,1.39859,3,121.439,2,0.138168,0\C,7,1.39807,5,117.853,3,-0.109502,0\H,8,1.07754,7,120.282,5,-179.4,0\C,8,1.3764,7,120.949,5,-0.0159318,0\H,10,1.07969,8,119.725,7,-179.283,0\C,1,1.40399,2,120.618,3,-30.7618,0\C,12,1.39052,1,120.508,2,140.244,0\H,13,1.08003,12,119.431,1,-0.723189,0\C,13,1.38343,12,121.002,1,179.193,0\H,15,1.07849,13,118.729,12,-179.996,0\C,15,1.39027,13,120.143,12,0.469866,0\O,17,1.36359,15,125.166,13,179.726,0\C,12,1.39585,1,120.8,2,-40.6006,0\H,19,1.07973,12,119.535,1,0.139365,0\C,19,1.37617,12,120.453,1,-179.715,0\H,21,1.07833,19,120.89,12,179.994,0\C,1,1.40425,2,120.63,3,149.216,0\C,23,1.39044,1,120.492,2,140.326,0\H,24,1.08004,23,119.44,1,-0.777355,0\C,24,1.38343,23,120.996,1,179.154,0\H,26,1.07849,24,118.728,23,179.985,0\C,26,1.39029,24,120.141,23,0.469805,0\O,28,1.3634,26,125.163,24,179.774,0\C,23,1.39579,1,120.802,2,-40.5322,0\H,30,1.07971,23,119.553,1,0.232069,0\C,30,1.37613,23,120.446,1,-179.674,0\H,32,1.07829,30,120.884,23,-179.962,0\C,29,1.40601,28,118.499,26,-0.58905,0\H,34,1.08888,29,105.702,28,-179.819,0\H,34,1.09499,29,111.596,28,-61.172,0\H,34,1.09511,29,111.6,28,61.5412,0\C,18,1.40601,17,118.491,15,-0.386477,0\H,38,1.08888,18,105.703,17,-179.897,0\H,38,1.09501,18,111.598,17,-61.2496,0\H,38,1.09507,18,111.6,17,61.4609,0\C,7,1.44988,5,118.354,3,179.917,0\H,42,1.08078,7,116.434,5,0.530116,0\C,42,1.32573,7,128.694,5,-179.409,0\F,44,1.33024,42,128.205,7,-0.0132734,0\F,44,1.33535,42,123.068,7,179.955,0\\\@

 Total job time:  140.64s(wall), 140.28s(cpu) 
 Tue Feb  8 15:20:13 2022

        *************************************************************
        *                                                           *
        *  Thank you very much for using Q-Chem.  Have a nice day.  *
        *                                                           *
        *************************************************************


