
Running Job 1 of 1 fragments/B009/conf-0/spe_input.inp
qchem fragments/B009/conf-0/spe_input.inp_144556.0 /gpfs/fs0/scratch/a/aspuru/rhickman/descriptor_computation/qchem144556/ 0
/scinet/niagara/software/commercial/qc52/exe/qcprog.exe_s fragments/B009/conf-0/spe_input.inp_144556.0 /gpfs/fs0/scratch/a/aspuru/rhickman/descriptor_computation/qchem144556/
                  Welcome to Q-Chem
     A Quantum Leap Into The Future Of Chemistry


 Q-Chem 5.2, Q-Chem, Inc., Pleasanton, CA (2019)

 License issued to: SRG Alan Aspuru-Guzik, University of Toronto

 Yihan Shao,  Zhengting Gan,  E. Epifanovsky,  A. T. B. Gilbert,  M. Wormit,  
 J. Kussmann,  A. W. Lange,  A. Behn,  Jia Deng,  Xintian Feng,  D. Ghosh,  
 M. Goldey,  P. R. Horn,  L. D. Jacobson,  I. Kaliman,  T. Kus,  A. Landau,  
 Jie Liu,  E. I. Proynov,  R. M. Richard,  R. P. Steele,  E. J. Sundstrom,  
 H. L. Woodcock III,  P. M. Zimmerman,  D. Zuev,  B. Albrecht,  E. Alguire,  
 S. A. Baeppler,  D. Barton,  Z. Benda,  Y. A. Bernard,  E. J. Berquist,  
 K. B. Bravaya,  H. Burton,  D. Casanova,  Chun-Min Chang,  Yunqing Chen,  
 A. Chien,  K. D. Closser,  M. P. Coons,  S. Coriani,  S. Dasgupta,  
 A. L. Dempwolff,  M. Diedenhofen,  Hainam Do,  R. G. Edgar,  Po-Tung Fang,  
 S. Faraji,  S. Fatehi,  Qingguo Feng,  K. D. Fenk,  J. Fosso-Tande,  
 J. Gayvert,  Qinghui Ge,  A. Ghysels,  G. Gidofalvi,  J. Gomes,  
 J. Gonthier,  A. Gunina,  D. Hait,  M. W. D. Hanson-Heine,  
 P. H. P. Harbach,  A. W. Hauser,  M. F. Herbst,  J. E. Herr,  
 E. G. Hohenstein,  Z. C. Holden,  Kerwin Hui,  B. C. Huynh,  T.-C. Jagau,  
 Hyunjun Ji,  B. Kaduk,  K. Khistyaev,  Jaehoon Kim,  P. Klunzinger,  K. Koh,  
 D. Kosenkov,  L. Koulias,  T. Kowalczyk,  C. M. Krauter,  A. Kunitsa,  
 Ka Un Lao,  A. Laurent,  K. V. Lawler,  Joonho Lee,  D. Lefrancois,  
 S. Lehtola,  D. S. Levine,  Yi-Pei Li,  You-Sheng Lin,  Fenglai Liu,  
 E. Livshits,  A. Luenser,  P. Manohar,  E. Mansoor,  S. F. Manzer,  
 Shan-Ping Mao,  Yuezhi Mao,  N. Mardirossian,  A. V. Marenich,  
 T. Markovich,  L. A. Martinez-Martinez,  S. A. Maurer,  N. J. Mayhall,  
 S. C. McKenzie,  J.-M. Mewes,  P. Morgante,  A. F. Morrison,  
 J. W. Mullinax,  K. Nanda,  T. S. Nguyen-Beck,  R. Olivares-Amaya,  
 J. A. Parkhill,  Zheng Pei,  T. M. Perrine,  F. Plasser,  P. Pokhilko,  
 S. Prager,  A. Prociuk,  E. Ramos,  D. R. Rehn,  F. Rob,  M. Scheurer,  
 M. Schneider,  N. Sergueev,  S. M. Sharada,  S. Sharma,  D. W. Small,  
 T. Stauch,  T. Stein,  Yu-Chuan Su,  A. J. W. Thom,  A. Tkatchenko,  
 T. Tsuchimochi,  N. M. Tubman,  L. Vogt,  M. L. Vidal,  O. Vydrov,  
 M. A. Watson,  J. Wenzel,  M. de Wergifosse,  T. A. Wesolowski,  A. White,  
 J. Witte,  A. Yamada,  Jun Yang,  K. Yao,  S. Yeganeh,  S. R. Yost,  
 Zhi-Qiang You,  A. Zech,  Igor Ying Zhang,  Xing Zhang,  Yan Zhao,  
 Ying Zhu,  B. R. Brooks,  G. K. L. Chan,  C. J. Cramer,  M. S. Gordon,  
 W. J. Hehre,  A. Klamt,  M. W. Schmidt,  C. D. Sherrill,  D. G. Truhlar,  
 A. Aspuru-Guzik,  R. Baer,  A. T. Bell,  N. A. Besley,  Jeng-Da Chai,  
 A. E. DePrince, III,  R. A. DiStasio Jr.,  A. Dreuw,  B. D. Dunietz,  
 T. R. Furlani,  Chao-Ping Hsu,  Yousung Jung,  Jing Kong,  D. S. Lambrecht,  
 WanZhen Liang,  C. Ochsenfeld,  V. A. Rassolov,  L. V. Slipchenko,  
 J. E. Subotnik,  T. Van Voorhis,  J. M. Herbert,  A. I. Krylov,  
 P. M. W. Gill,  M. Head-Gordon

 Contributors to earlier versions of Q-Chem not listed above: 
 R. D. Adamson,  B. Austin,  J. Baker,  G. J. O. Beran,  K. Brandhorst,  
 S. T. Brown,  E. F. C. Byrd,  A. K. Chakraborty,  C.-L. Cheng,  
 Siu Hung Chien,  D. M. Chipman,  D. L. Crittenden,  H. Dachsel,  
 R. J. Doerksen,  A. D. Dutoi,  L. Fusti-Molnar,  W. A. Goddard III,  
 A. Golubeva-Zadorozhnaya,  S. R. Gwaltney,  G. Hawkins,  A. Heyden,  
 S. Hirata,  G. Kedziora,  F. J. Keil,  C. Kelley,  Jihan Kim,  R. A. King,  
 R. Z. Khaliullin,  P. P. Korambath,  W. Kurlancheek,  A. M. Lee,  M. S. Lee,  
 S. V. Levchenko,  Ching Yeh Lin,  D. Liotard,  R. C. Lochan,  I. Lotan,  
 P. E. Maslen,  N. Nair,  D. P. O'Neill,  D. Neuhauser,  E. Neuscamman,  
 C. M. Oana,  R. Olson,  B. Peters,  R. Peverati,  P. A. Pieniazek,  
 Y. M. Rhee,  J. Ritchie,  M. A. Rohrdanz,  E. Rosta,  N. J. Russ,  
 H. F. Schaefer III,  N. E. Schultz,  N. Shenvi,  A. C. Simmonett,  A. Sodt,  
 D. Stuck,  K. S. Thanthiriwatte,  V. Vanovschi,  Tao Wang,  A. Warshel,  
 C. F. Williams,  Q. Wu,  X. Xu,  W. Zhang

 Please cite Q-Chem as follows:
 Y. Shao et al., Mol. Phys. 113, 184-215 (2015)
 DOI: 10.1080/00268976.2014.952696

 Q-Chem 5.2.1 for Intel X86 EM64T Linux

 Parts of Q-Chem use Armadillo 8.300.2 (Tropical Shenanigans).
 http://arma.sourceforge.net/

 Q-Chem begins on Mon Feb  7 17:21:18 2022  

Host: 
0

     Scratch files written to /gpfs/fs0/scratch/a/aspuru/rhickman/descriptor_computation/qchem144556//
 Jul1719 |scratch|qcdevops|jenkins|workspace|build_RNUM -1
Processing $rem in /scinet/niagara/software/commercial/qc52/config/preferences:
	 MEM_TOTAL  4000 
NAlpha2: 86
NElect   86
Mult     1

Checking the input file for inconsistencies... 	...done.

--------------------------------------------------------------
User input:
--------------------------------------------------------------
$molecule
0 1
C         2.42012233510000    2.65318250000000    0.06657336120000
C         2.82177438480000    1.39443086120000   -0.05903530580000
C         1.97812444410000    0.20387174530000   -0.03063429100000
C         2.58589366430000   -1.05283901940000    0.00092787590000
C         1.82268981860000   -2.20485283980000    0.03329671180000
C         0.44371907860000   -2.12550608970000    0.02970886840000
C        -0.19213258150000   -0.88155997080000   -0.00648177150000
C        -1.64760977710000   -0.86094408250000   -0.01252427970000
C        -2.46080882750000    0.18425687940000   -0.00270847220000
F        -2.14185733520000    1.47350643410000    0.01521242330000
F        -3.78884377610000    0.07220943980000   -0.00759862350000
C         0.58698674240000    0.27188013030000   -0.03778978540000
H         3.12254841710000    3.46841087700000    0.03714783380000
H         1.38881715940000    2.92685837850000    0.20854029820000
H         3.87854894700000    1.19070985080000   -0.18353613920000
H         3.66425293730000   -1.12195148720000    0.00350003390000
H         2.30531242750000   -3.17074414620000    0.05963055030000
H        -0.14941397250000   -3.02777197450000    0.05344380230000
H        -2.14138416410000   -1.82224236350000   -0.02181213450000
H         0.11186618040000    1.23668825510000   -0.07797746170000
$end

$rem
BASIS = 6-31G*
GUI = 2
METHOD = B3LYP
PRINT_ORBITALS false
MOLDEN_FORMAT false
--------------------------------------------------------------
 ----------------------------------------------------------------
             Standard Nuclear Orientation (Angstroms)
    I     Atom           X                Y                Z
 ----------------------------------------------------------------
    1      C      -2.4006951595    -2.5877613913     0.0658880477
    2      C      -2.7615483057    -1.3166777340    -0.0593674412
    3      C      -1.8799256549    -0.1539614531    -0.0308157282
    4      C      -2.4468321662     1.1216944637     0.0011300211
    5      C      -1.6468566559     2.2484797833     0.0336526376
    6      C      -0.2711639434     2.1246892213     0.0298396947
    7      C       0.3242215236     0.8608864580    -0.0067357644
    8      C       1.7782751956     0.7933286510    -0.0130011659
    9      C       2.5573338655    -0.2775646069    -0.0035504938
   10      F       2.1969593590    -1.5558578686     0.0141181074
   11      F       3.8882915484    -0.2084170934    -0.0086135631
   12      C      -0.4917070421    -0.2668112141    -0.0381955061
   13      H      -3.1290593224    -3.3798979790     0.0363780228
   14      H      -1.3787354584    -2.8945987094     0.2076367431
   15      H      -3.8112184168    -1.0789413692    -0.1836625000
   16      H      -3.5224001883     1.2255585052     0.0038798517
   17      H      -2.0980643633     3.2294315993     0.0602836149
   18      H       0.3507711235     3.0073451854     0.0536957621
   19      H       2.3028030206     1.7381994626    -0.0221392571
   20      H      -0.0479645037    -1.2464351044    -0.0786789444
 ----------------------------------------------------------------
 Molecular Point Group                 C1    NOp =  1
 Largest Abelian Subgroup              C1    NOp =  1
 Nuclear Repulsion Energy =         636.40010207 hartrees
 There are       43 alpha and       43 beta electrons
 Requested basis set is 6-31G(d)
 There are 64 shells and 196 basis functions

 Total QAlloc Memory Limit   4000 MB
 Mega-Array Size       188 MB
 MEM_STATIC part       192 MB
 A cutoff of  1.0D-08 yielded   1455 shell pairs
 There are     14516 function pairs
 Smallest overlap matrix eigenvalue = 3.82E-04

 Scale SEOQF with 1.000000e-01/1.000000e-01/1.000000e+00

 Standard Electronic Orientation quadrupole field applied
 Nucleus-field energy     =     0.0000000294 hartrees
 Guess from superposition of atomic densities
 Warning:  Energy on first SCF cycle will be non-variational
 SAD guess density has 86.000000 electrons

 -----------------------------------------------------------------------
  General SCF calculation program by
  Eric Jon Sundstrom, Paul Horn, Yuezhi Mao, Dmitri Zuev, Alec White,
  David Stuck, Shaama M.S., Shane Yost, Joonho Lee, David Small,
  Daniel Levine, Susi Lehtola, Hugh Burton, Evgeny Epifanovsky,
  Bang C. Huynh
 -----------------------------------------------------------------------
 Exchange:     0.2000 Hartree-Fock + 0.0800 Slater + 0.7200 B88
 Correlation:  0.1900 VWN1RPA + 0.8100 LYP
 Using SG-1 standard quadrature grid
 A restricted SCF calculation will be
 performed using DIIS
 SCF converges when DIIS error is below 1.0e-05
 ---------------------------------------
  Cycle       Energy         DIIS error
 ---------------------------------------
    1    -588.1968582923      5.68e-02  
    2    -585.3050483835      6.44e-03  
    3    -585.1304526605      8.78e-03  
    4    -585.5018523001      1.63e-03  
    5    -585.5144081157      5.04e-04  
    6    -585.5153768090      2.51e-04  
    7    -585.5156919373      4.94e-05  
    8    -585.5157017601      2.05e-05  
    9    -585.5157036656      6.74e-06  Convergence criterion met
 ---------------------------------------
 SCF time:   CPU 23.24s  wall 23.00s 
 SCF   energy in the final basis set =     -585.5157036656
 Total energy in the final basis set =     -585.5157036656
 
 --------------------------------------------------------------
 
                    Orbital Energies (a.u.)
 --------------------------------------------------------------
 
 Alpha MOs
 -- Occupied --
-24.7452 -24.7343 -10.3572 -10.2068 -10.2033 -10.1965 -10.1906 -10.1906
-10.1898 -10.1879 -10.1865 -10.1805  -1.2858  -1.2247  -0.8712  -0.8147
 -0.7868  -0.7398  -0.7286  -0.6480  -0.6305  -0.6053  -0.5778  -0.5555
 -0.5323  -0.5194  -0.5032  -0.4696  -0.4634  -0.4413  -0.4393  -0.4356
 -0.4277  -0.4130  -0.4032  -0.3846  -0.3750  -0.3453  -0.3437  -0.3181
 -0.2863  -0.2321  -0.2196
 -- Virtual --
 -0.0320  -0.0264   0.0495   0.0823   0.0839   0.1112   0.1212   0.1353
  0.1521   0.1646   0.1827   0.1849   0.1875   0.2110   0.2385   0.2820
  0.2947   0.3105   0.3413   0.3470   0.3835   0.4204   0.4296   0.4774
  0.4955   0.5229   0.5252   0.5355   0.5458   0.5531   0.5560   0.5689
  0.5837   0.5871   0.5938   0.6037   0.6150   0.6190   0.6228   0.6326
  0.6382   0.6898   0.6972   0.7150   0.7466   0.7776   0.7874   0.8239
  0.8287   0.8327   0.8565   0.8807   0.8843   0.8964   0.9320   0.9487
  0.9578   0.9845   0.9986   1.0272   1.0481   1.0648   1.1093   1.1235
  1.1577   1.1633   1.1814   1.2068   1.2141   1.2330   1.2537   1.2652
  1.2834   1.3273   1.3415   1.3771   1.4032   1.4279   1.4500   1.4570
  1.4731   1.4763   1.4929   1.4982   1.5175   1.5257   1.6041   1.6575
  1.6787   1.7212   1.7770   1.7827   1.7971   1.8165   1.8326   1.8366
  1.8695   1.8968   1.9045   1.9468   1.9543   1.9673   1.9825   1.9872
  2.0190   2.0258   2.0313   2.0585   2.1249   2.1353   2.1593   2.1726
  2.1830   2.2312   2.2469   2.2631   2.2896   2.3154   2.3395   2.3629
  2.4141   2.5049   2.5110   2.5231   2.5896   2.6269   2.6344   2.6502
  2.6749   2.6983   2.7349   2.8066   2.8457   2.8706   2.9173   2.9549
  3.0595   3.1191   3.1841   3.3217   3.4742   4.0786   4.0929   4.1071
  4.1291   4.1589   4.2425   4.2608   4.3924   4.4899   4.7271   4.8161
  5.2962
 --------------------------------------------------------------
 
          Ground-State Mulliken Net Atomic Charges

     Atom                 Charge (a.u.)
  ----------------------------------------
      1 C                    -0.350202
      2 C                    -0.117233
      3 C                     0.180176
      4 C                    -0.196775
      5 C                    -0.127906
      6 C                    -0.193301
      7 C                     0.199934
      8 C                    -0.301778
      9 C                     0.546649
     10 F                    -0.234007
     11 F                    -0.248989
     12 C                    -0.260012
     13 H                     0.144916
     14 H                     0.147495
     15 H                     0.127528
     16 H                     0.127825
     17 H                     0.130971
     18 H                     0.127944
     19 H                     0.159748
     20 H                     0.137017
  ----------------------------------------
  Sum of atomic charges =     0.000000

 -----------------------------------------------------------------
                    Cartesian Multipole Moments
 -----------------------------------------------------------------
    Charge (ESU x 10^10)
                 0.0000
    Dipole Moment (Debye)
         X      -0.7442      Y       0.8889      Z      -0.0025
       Tot       1.1593
    Quadrupole Moments (Debye-Ang)
        XX     -65.0107     XY       1.5194     YY     -61.2972
        XZ       0.2509     YZ       0.0006     ZZ     -70.8223
    Octopole Moments (Debye-Ang^2)
       XXX      12.7407    XXY       1.5972    XYY      10.5556
       YYY      -6.5414    XXZ      -1.3693    XYZ      -0.3401
       YYZ       1.0854    XZZ      23.2343    YZZ      -6.3428
       ZZZ       0.0162
    Hexadecapole Moments (Debye-Ang^3)
      XXXX   -1913.6043   XXXY     -20.1422   XXYY    -452.0209
      XYYY     -19.4043   YYYY    -894.7229   XXXZ       6.0541
      XXYZ       1.9796   XYYZ      -1.0471   YYYZ      -0.9518
      XXZZ    -349.0120   XYZZ     -17.3783   YYZZ    -188.3264
      XZZZ       0.3438   YZZZ      -0.2361   ZZZZ     -69.1512
 -----------------------------------------------------------------
Archival summary:
1\1\nia1977.scinet.local\SP\ProcedureUnspecified\6-31G*\2108\rhickman\MonFeb717:21:412022MonFeb717:21:412022\0\\#,ProcedureUnspecified,6-31G*,\\0,1\F\C,1,1.32824\C,2,1.32432,1,128.222\H,3,1.08074,2,114.931,1,179.696,0\F,2,1.33276,1,108.719,3,179.892,0\C,3,1.45564,2,128.692,1,-0.00470463,0\C,6,1.39228,3,123.21,2,-2.4305,0\H,7,1.0762,6,119.768,3,-0.600499,0\C,7,1.39282,6,121.222,3,-179.997,0\C,9,1.39632,7,118.607,6,0.370516,0\H,10,1.08057,9,119.472,7,179.796,0\C,10,1.38227,9,120.684,7,-0.420735,0\H,12,1.08008,10,119.945,9,-179.871,0\C,12,1.38126,10,120.218,9,0.243961,0\H,14,1.08002,12,120.015,10,179.901,0\C,9,1.45945,7,122.509,6,-179.825,0\H,16,1.08341,9,114.374,7,-172.2,0\C,16,1.32724,9,126.648,7,8.6716,0\H,18,1.0764,16,122.926,9,0.068304,0\H,18,1.07651,16,121.209,9,179.69,0\\\@

 Total job time:  23.48s(wall), 23.39s(cpu) 
 Mon Feb  7 17:21:41 2022

        *************************************************************
        *                                                           *
        *  Thank you very much for using Q-Chem.  Have a nice day.  *
        *                                                           *
        *************************************************************


