
Running Job 1 of 1 tidas/B034/conf-2/spe_input.inp
qchem tidas/B034/conf-2/spe_input.inp_150069.0 /home/a/aspuru/seifridm/acdc_laser/descriptor_computation/qchem150069/ 0
/gpfs/fs1/scinet/niagara/software/commercial/qc54/exe/qcprog.exe_s tidas/B034/conf-2/spe_input.inp_150069.0 /home/a/aspuru/seifridm/acdc_laser/descriptor_computation/qchem150069/
                  Welcome to Q-Chem
     A Quantum Leap Into The Future Of Chemistry


 Q-Chem 5.4, Q-Chem, Inc., Pleasanton, CA (2021)

 License issued to: SRG Alan Aspuru-Guzik, University of Toronto

 E. Epifanovsky,  A. T. B. Gilbert,  Xintian Feng,  Joonho Lee,  Yuezhi Mao,  
 N. Mardirossian,  P. Pokhilko,  A. White,  M. Wormit,  M. P. Coons,  
 A. L. Dempwolff,  Zhengting Gan,  D. Hait,  P. R. Horn,  L. D. Jacobson,  
 I. Kaliman,  J. Kussmann,  A. W. Lange,  Ka Un Lao,  D. S. Levine,  Jie Liu,  
 S. C. McKenzie,  A. F. Morrison,  K. Nanda,  F. Plasser,  D. R. Rehn,  
 M. L. Vidal,  Zhi-Qiang You,  Ying Zhu,  B. Alam,  B. Albrecht,  
 A. Aldossary,  E. Alguire,  J. H. Andersen,  D. Barton,  K. Begam,  A. Behn,  
 Y. A. Bernard,  E. J. Berquist,  H. Burton,  A. Carreras,  K. Carter-Fenk,  
 Romit Chakraborty,  A. D. Chien,  K. D. Closser,  V. Cofer-Shabica,  
 S. Dasgupta,  Jia Deng,  M. de Wergifosse,  M. Diedenhofen,  Hainam Do,  
 S. Ehlert,  Po-Tung Fang,  S. Fatehi,  Qingguo Feng,  T. Friedhoff,  
 J. Gayvert,  Qinghui Ge,  G. Gidofalvi,  M. Goldey,  J. Gomes,  
 C. Gonzalez-Espinoza,  S. Gulania,  A. Gunina,  M. W. D. Hanson-Heine,  
 P. H. P. Harbach,  A. W. Hauser,  M. F. Herbst,  M. Hernandez Vera,  
 M. Hodecker,  Z. C. Holden,  S. Houck,  Xunkun Huang,  Kerwin Hui,  
 B. C. Huynh,  M. Ivanov,  Hyunjun Ji,  Hanjie Jiang,  B. Kaduk,  S. Kaehler,  
 K. Khistyaev,  Jaehoon Kim,  P. Klunzinger,  Z. Koczor-Benda,  
 Joong Hoon Koh,  D. Kosenkov,  L. Koulias,  T. Kowalczyk,  C. M. Krauter,  
 K. Kue,  A. Kunitsa,  T. Kus,  A. Landau,  K. V. Lawler,  D. Lefrancois,  
 S. Lehtola,  Rain Li,  Yi-Pei Li,  Jiashu Liang,  M. Liebenthal,  
 Hung-Hsuan Lin,  You-Sheng Lin,  Fenglai Liu,  Kuan-Yu Liu,  
 M. Loipersberger,  A. Luenser,  A. Manjanath,  P. Manohar,  E. Mansoor,  
 S. F. Manzer,  Shan-Ping Mao,  A. V. Marenich,  T. Markovich,  S. Mason,  
 S. A. Maurer,  P. F. McLaughlin,  M. F. S. J. Menger,  J.-M. Mewes,  
 S. A. Mewes,  P. Morgante,  J. W. Mullinax,  K. J. Oosterbaan,  G. Paran,  
 Alexander C. Paul,  Suranjan K. Paul,  F. Pavosevic,  Zheng Pei,  S. Prager,  
 E. I. Proynov,  E. Ramos,  B. Rana,  A. E. Rask,  A. Rettig,  R. M. Richard,  
 F. Rob,  E. Rossomme,  T. Scheele,  M. Scheurer,  M. Schneider,  
 N. Sergueev,  S. M. Sharada,  W. Skomorowski,  D. W. Small,  C. J. Stein,  
 Yu-Chuan Su,  E. J. Sundstrom,  Zhen Tao,  J. Thirman,  T. Tsuchimochi,  
 N. M. Tubman,  S. P. Veccham,  O. Vydrov,  J. Wenzel,  J. Witte,  A. Yamada,  
 Kun Yao,  S. Yeganeh,  S. R. Yost,  A. Zech,  Igor Ying Zhang,  Xing Zhang,  
 Yu Zhang,  D. Zuev,  A. Aspuru-Guzik,  A. T. Bell,  N. A. Besley,  
 K. B. Bravaya,  B. R. Brooks,  D. Casanova,  Jeng-Da Chai,  S. Coriani,  
 C. J. Cramer,  A. E. DePrince, III,  R. A. DiStasio Jr.,  A. Dreuw,  
 B. D. Dunietz,  T. R. Furlani,  W. A. Goddard III,  S. Grimme,  
 S. Hammes-Schiffer,  T. Head-Gordon,  W. J. Hehre,  Chao-Ping Hsu,  
 T.-C. Jagau,  Yousung Jung,  A. Klamt,  Jing Kong,  D. S. Lambrecht,  
 WanZhen Liang,  N. J. Mayhall,  C. W. McCurdy,  J. B. Neaton,  T. Neudecker,  
 C. Ochsenfeld,  J. A. Parkhill,  R. Peverati,  V. A. Rassolov,  Yihan Shao,  
 L. V. Slipchenko,  R. P. Steele,  J. E. Subotnik,  A. J. W. Thom,  
 A. Tkatchenko,  D. G. Truhlar,  T. Van Voorhis,  T. A. Wesolowski,  
 K. B. Whaley,  H. L. Woodcock III,  P. M. Zimmerman,  S. Faraji,  
 P. M. W. Gill,  M. Head-Gordon,  J. M. Herbert,  A. I. Krylov

 Additional authors since Version 5.4.0: 
 Chandrima Chakravarty,  L. Cunha,  R. Kang,  Yongbin Kim,  S. Kotaru,  
 Shaozhi Li,  Xiangyuan Li,  F. Matz,  A. Molle,  V. Parravicini,  
 Haisheng Ren,  Hengyuan Shen,  Yingli Su,  Hung-Yi Tsai,  C. Utku,  
 Fang Wang,  Jeff Yang,  F. Zeller

 Contributors to earlier versions of Q-Chem not listed above: 
 R. D. Adamson,  B. Austin,  R. Baer,  J. Baker,  G. J. O. Beran,  
 K. Brandhorst,  S. T. Brown,  E. F. C. Byrd,  Arup K. Chakraborty,  
 G. K. L. Chan,  Chun-Min Chang,  Yunqing Chen,  C.-L. Cheng,  
 Siu Hung Chien,  D. M. Chipman,  D. L. Crittenden,  H. Dachsel,  
 R. J. Doerksen,  A. D. Dutoi,  R. G. Edgar,  J. Fosso-Tande,  
 L. Fusti-Molnar,  D. Ghosh,  A. Ghysels,  A. Golubeva-Zadorozhnaya,  
 J. Gonthier,  M. S. Gordon,  S. R. Gwaltney,  G. Hawkins,  J. E. Herr,  
 A. Heyden,  S. Hirata,  E. G. Hohenstein,  G. Kedziora,  F. J. Keil,  
 C. Kelley,  Jihan Kim,  R. A. King,  R. Z. Khaliullin,  P. P. Korambath,  
 W. Kurlancheek,  A. Laurent,  A. M. Lee,  M. S. Lee,  S. V. Levchenko,  
 Ching Yeh Lin,  D. Liotard,  E. Livshits,  R. C. Lochan,  I. Lotan,  
 L. A. Martinez-Martinez,  P. E. Maslen,  N. Nair,  D. P. O'Neill,  
 D. Neuhauser,  E. Neuscamman,  C. M. Oana,  R. Olivares-Amaya,  R. Olson,  
 T. M. Perrine,  B. Peters,  P. A. Pieniazek,  A. Prociuk,  Y. M. Rhee,  
 J. Ritchie,  M. A. Rohrdanz,  E. Rosta,  N. J. Russ,  H. F. Schaefer III,  
 M. W. Schmidt,  N. E. Schultz,  S. Sharma,  N. Shenvi,  C. D. Sherrill,  
 A. C. Simmonett,  A. Sodt,  T. Stein,  D. Stuck,  K. S. Thanthiriwatte,  
 V. Vanovschi,  L. Vogt,  Tao Wang,  A. Warshel,  M. A. Watson,  
 C. F. Williams,  Q. Wu,  X. Xu,  Jun Yang,  W. Zhang,  Yan Zhao

   Please cite Q-Chem as follows:
  "Software for the frontiers of quantum chemistry:
   An overview of developments in the Q-Chem 5 package"
   J. Chem. Phys. 155, 084801 (2021)
   https://doi.org/10.1063/5.0055522 (open access)

 Q-Chem 5.4.2 for Intel X86 EM64T Linux

 Parts of Q-Chem use Armadillo 9.900.5 (Nocturnal Misbehaviour).
 http://arma.sourceforge.net/

 Q-Chem begins on Fri Aug 12 13:12:57 2022  

 Host: 
0

     Scratch files written to /home/a/aspuru/seifridm/acdc_laser/descriptor_computation/qchem150069//
 Dec1321 |scratch|qcdevops|jenkins|workspace|build_RNUM 6959   
 Processing $rem in /gpfs/fs1/scinet/niagara/software/commercial/qc54/config/preferences:
 Processing $rem in /home/a/aspuru/seifridm/.qchemrc:

 Checking the input file for inconsistencies... 	...done.

--------------------------------------------------------------
User input:
--------------------------------------------------------------
$molecule
0 1
C           -4.73347943510000       -1.02077061310000       -0.05554932070000
C           -3.83275192970000       -0.06708915000000       -0.26112273530000
C           -2.40706676490000       -0.14050908230000        0.03031009680000
C           -1.81790393270000       -1.21454359000000        0.70030497300000
C           -0.46289345630000       -1.22269052600000        0.93970572600000
C            0.36168604280000       -0.18166836250000        0.50726585070000
C            1.79278132570000       -0.30444260700000        0.79275574720000
C            2.79092988320000       -0.08062241150000       -0.04339229330000
F            2.71116371160000        0.29385384020000       -1.31470153220000
F            4.07510585450000       -0.23786345900000        0.28112713460000
C           -0.21439728680000        0.92076767260000       -0.13433831060000
C            0.58454841860000        2.11735874320000       -0.54992657840000
C           -1.58354326930000        0.91447125590000       -0.35722768600000
H           -5.76958208780000       -0.87509337460000       -0.30866949860000
H           -4.48283462900000       -1.97985905550000        0.36402373250000
H           -4.15393135370000        0.87059834360000       -0.69865050550000
H           -2.42157836410000       -2.03960366560000        1.04331268110000
H           -0.01631294060000       -2.05907000610000        1.45819072960000
H            2.06834783770000       -0.67679635320000        1.76925035420000
H            1.42140115120000        2.28650951490000        0.12440284780000
H           -0.04403330950000        3.00488179630000       -0.55732060270000
H            0.98253903550000        1.97975092890000       -1.55472023270000
H           -2.02834104260000        1.76689748400000       -0.85246206800000
$end

$rem
BASIS = 6-31G*
GUI = 2
METHOD = B3LYP
PRINT_ORBITALS false
MOLDEN_FORMAT false
$end
--------------------------------------------------------------
 ----------------------------------------------------------------
             Standard Nuclear Orientation (Angstroms)
    I     Atom           X                Y                Z
 ----------------------------------------------------------------
    1      C       4.6984388435    -0.4213269298     0.4222054476
    2      C       3.7039776800     0.4213739110     0.1692606155
    3      C       2.2991075961     0.0792943162    -0.0102480731
    4      C       1.8331971062    -1.2358462185    -0.0639964710
    5      C       0.4910879029    -1.4891828310    -0.2313163184
    6      C      -0.4411366767    -0.4538314345    -0.3296400691
    7      C      -1.8466613715    -0.8365705816    -0.4800487870
    8      C      -2.8799186657    -0.3356217250     0.1733799968
    9      F      -2.8650289343     0.6102511232     1.1050049949
   10      F      -4.1350322620    -0.7529693719     0.0011698538
   11      C       0.0095825944     0.8711223218    -0.3140581538
   12      C      -0.9120824965     2.0363710239    -0.5027032205
   13      C       1.3675354210     1.1052952659    -0.1546618141
   14      H       5.7094312217    -0.0724050011     0.5444686391
   15      H       4.5525707202    -1.4830624274     0.5229786085
   16      H       3.9217373754     1.4799268531     0.0925078208
   17      H       2.5224452591    -2.0613650765     0.0151036811
   18      H       0.1403543190    -2.5105687446    -0.2706642472
   19      H      -2.0629678383    -1.6576216740    -1.1487883091
   20      H      -1.7466721668     1.7782474241    -1.1511528671
   21      H      -0.3742047944     2.8739053906    -0.9409846283
   22      H      -1.3163321601     2.3616474420     0.4552739143
   23      H       1.7154212295     2.1292973414    -0.1433551686
 ----------------------------------------------------------------
 Molecular Point Group                 C1    NOp =  1
 Largest Abelian Subgroup              C1    NOp =  1
 Nuclear Repulsion Energy =         739.59025592 hartrees
 There are       47 alpha and       47 beta electrons
 Requested basis set is 6-31G(d)
 There are 72 shells and 215 basis functions

 Total QAlloc Memory Limit   8000 MB
 Mega-Array Size       188 MB
 MEM_STATIC part       192 MB
 A cutoff of  1.0D-08 yielded   1783 shell pairs
 There are     16930 function pairs
 Smallest overlap matrix eigenvalue = 3.34E-04

 Scale SEOQF with 1.000000e-02/1.000000e-01/1.000000e+00

 Standard Electronic Orientation quadrupole field applied
 Nucleus-field energy     =    -0.0000000124 hartrees
 Guess from superposition of atomic densities
 Warning:  Energy on first SCF cycle will be non-variational
 SAD guess density has 94.000000 electrons

 -----------------------------------------------------------------------
  General SCF calculation program by
  Eric Jon Sundstrom, Paul Horn, Yuezhi Mao, Dmitri Zuev, Alec White,
  David Stuck, Shaama M.S., Shane Yost, Joonho Lee, David Small,
  Daniel Levine, Susi Lehtola, Hugh Burton, Evgeny Epifanovsky,
  Bang C. Huynh
 -----------------------------------------------------------------------
 Exchange:     0.2000 Hartree-Fock + 0.0800 Slater + 0.7200 B88
 Correlation:  0.1900 VWN1RPA + 0.8100 LYP
 Using SG-1 standard quadrature grid
 A restricted SCF calculation will be
 performed using DIIS
 SCF converges when DIIS error is below 1.0e-05
 ---------------------------------------
  Cycle       Energy         DIIS error
 ---------------------------------------
    1    -627.7030015763      5.42e-02  
    2    -624.5983398719      6.17e-03  
    3    -624.4562706335      7.92e-03  
    4    -624.8155946933      1.49e-03  
    5    -624.8278701256      4.43e-04  
    6    -624.8286728843      2.45e-04  
    7    -624.8290370997      5.08e-05  
    8    -624.8290496228      2.08e-05  
    9    -624.8290521824      6.17e-06  Convergence criterion met
 ---------------------------------------
 SCF time:   CPU 46.07s  wall 47.00s 
 SCF   energy in the final basis set =     -624.8290521824
 Total energy in the final basis set =     -624.8290521824
 
 --------------------------------------------------------------
 
                    Orbital Energies (a.u.)
 --------------------------------------------------------------
 
 Alpha MOs
 -- Occupied --
-24.7408 -24.7328 -10.3554 -10.2013 -10.2009 -10.1964 -10.1939 -10.1898
-10.1884 -10.1852 -10.1838 -10.1796 -10.1776  -1.2828  -1.2221  -0.8720
 -0.8170  -0.7815  -0.7682  -0.7254  -0.6889  -0.6439  -0.6110  -0.6059
 -0.5709  -0.5509  -0.5300  -0.5176  -0.4880  -0.4827  -0.4536  -0.4408
 -0.4378  -0.4337  -0.4207  -0.4199  -0.4100  -0.4087  -0.3882  -0.3692
 -0.3657  -0.3430  -0.3381  -0.3069  -0.2645  -0.2463  -0.2137
 -- Virtual --
 -0.0374   0.0009   0.0276   0.0721   0.0974   0.1095   0.1159   0.1235
  0.1406   0.1532   0.1629   0.1783   0.1805   0.1882   0.2024   0.2216
  0.2302   0.2512   0.2800   0.3148   0.3321   0.3422   0.3681   0.3881
  0.3993   0.4377   0.4843   0.4877   0.5085   0.5111   0.5183   0.5260
  0.5418   0.5493   0.5637   0.5730   0.5829   0.5926   0.5938   0.6062
  0.6110   0.6266   0.6375   0.6544   0.6665   0.6823   0.7006   0.7130
  0.7345   0.7449   0.7685   0.7888   0.8211   0.8267   0.8383   0.8517
  0.8673   0.8819   0.8923   0.8975   0.9232   0.9381   0.9516   0.9671
  0.9726   0.9865   1.0065   1.0171   1.0369   1.0803   1.0894   1.1122
  1.1462   1.1627   1.1848   1.1955   1.2187   1.2429   1.2561   1.2676
  1.3118   1.3209   1.3373   1.3558   1.3798   1.3951   1.4233   1.4507
  1.4517   1.4580   1.4792   1.4889   1.5121   1.5217   1.5542   1.5964
  1.6786   1.6889   1.7253   1.7642   1.7734   1.7919   1.8179   1.8298
  1.8393   1.8560   1.8655   1.8998   1.9232   1.9354   1.9430   1.9768
  1.9821   1.9880   2.0017   2.0127   2.0187   2.0558   2.0716   2.1100
  2.1469   2.1584   2.1671   2.2004   2.2185   2.2414   2.2459   2.2724
  2.3094   2.3168   2.3475   2.3704   2.3836   2.4054   2.4602   2.5106
  2.5252   2.5462   2.5970   2.6245   2.6559   2.6707   2.6886   2.7128
  2.7565   2.8207   2.8758   2.9311   2.9580   2.9979   3.0401   3.1311
  3.1730   3.2820   3.4700   4.0931   4.1035   4.1269   4.1302   4.1515
  4.2332   4.2496   4.3215   4.3900   4.5284   4.7819   4.7907   5.2485
 --------------------------------------------------------------
 
          Ground-State Mulliken Net Atomic Charges

     Atom                 Charge (a.u.)
  ----------------------------------------
      1 C                    -0.353498
      2 C                    -0.113391
      3 C                     0.192104
      4 C                    -0.188588
      5 C                    -0.177285
      6 C                     0.116403
      7 C                    -0.344512
      8 C                     0.566415
      9 F                    -0.233938
     10 F                    -0.249025
     11 C                     0.145663
     12 C                    -0.536146
     13 C                    -0.268198
     14 H                     0.144284
     15 H                     0.142608
     16 H                     0.127164
     17 H                     0.126459
     18 H                     0.128068
     19 H                     0.168621
     20 H                     0.157061
     21 H                     0.154273
     22 H                     0.173806
     23 H                     0.121653
  ----------------------------------------
  Sum of atomic charges =     0.000000

 -----------------------------------------------------------------
                    Cartesian Multipole Moments
 -----------------------------------------------------------------
    Charge (ESU x 10^10)
                 0.0000
    Dipole Moment (Debye)
         X       0.6960      Y      -0.1440      Z      -0.4853
       Tot       0.8606
    Quadrupole Moments (Debye-Ang)
        XX     -74.3227     XY       0.3819     YY     -67.5777
        XZ       2.0812     YZ       0.0734     ZZ     -76.7656
    Octopole Moments (Debye-Ang^2)
       XXX     -15.4713    XXY       1.0778    XYY     -11.1996
       YYY      -3.2164    XXZ       4.7101    XYZ      -2.1426
       YYZ       0.7689    XZZ     -27.6334    YZZ      -0.4028
       ZZZ       9.0557
    Hexadecapole Moments (Debye-Ang^3)
      XXXX   -2960.5750   XXXY      -0.9801   XXYY    -572.8179
      XYYY      12.1335   YYYY    -583.8994   XXXZ      11.1886
      XXYZ      -4.1272   XYYZ      -4.0363   YYYZ       8.2990
      XXZZ    -553.7190   XYZZ       7.1004   YYZZ    -128.8049
      XZZZ     -29.9224   YZZZ       7.0358   ZZZZ    -160.0953
 -----------------------------------------------------------------
 Total job time:  48.16s(wall), 46.52s(cpu) 
 Fri Aug 12 13:13:45 2022

        *************************************************************
        *                                                           *
        *  Thank you very much for using Q-Chem.  Have a nice day.  *
        *                                                           *
        *************************************************************


