23
 energy: -31.183399151045 gnorm: 0.000025865486 xtb: 6.4.1 (23d549d)
C        -2.14377040710000   -2.14810487470000   -0.21254552200000
C        -2.07121819230000   -0.87738517930000    0.16712808310000
C        -0.89401973090000   -0.04343911030000    0.10007766920000
C        -0.87933888580000    1.36542300160000   -0.01860304480000
C        -2.04147594000000    2.28997586980000   -0.08414402320000
N         0.36329674660000    1.80830528420000   -0.08102361130000
N         1.16144750570000    0.74398343810000   -0.01440651220000
C         2.57995499150000    0.94727222920000    0.01523761960000
C         0.45737049210000   -0.41127084280000    0.10068121620000
C         1.02522639980000   -1.72523817270000    0.28721621210000
C         2.17135399260000   -2.17979534050000   -0.20803326500000
H        -3.06050070880000   -2.70708189160000   -0.13000267090000
H        -1.30248748860000   -2.66804278970000   -0.63820948800000
H        -2.95814007850000   -0.37883782900000    0.53961403570000
H        -2.65623392770000    2.19355884610000    0.81034384460000
H        -2.66186619230000    2.06115331160000   -0.94994130200000
H        -1.68303967950000    3.31232080590000   -0.16189566020000
H         2.75659716840000    1.97663221800000    0.32366664450000
H         3.02053409490000    0.79932002060000   -0.97393391530000
H         3.04459553370000    0.26118827720000    0.72366124330000
H         0.40715331310000   -2.38046514090000    0.88938584780000
H         2.80051818720000   -1.59717018250000   -0.85761414020000
H         2.50531856350000   -3.18211550460000   -0.00084623980000
