22
 energy: -40.808829667387 gnorm: 0.000025818287 xtb: 6.4.1 (23d549d)
C         2.97100297360000    2.60063281200000    0.00742286860000
N         2.76421524260000    1.18199360330000    0.00343885500000
C         3.71008339540000    0.20272392110000    0.00024215550000
N         3.23068934510000   -1.00255721170000   -0.00337129000000
C         1.55466898840000    0.53209907930000    0.00162578660000
C         1.86982771810000   -0.84933693670000   -0.00266148010000
C         0.84464374740000   -1.78995313600000   -0.00539123240000
C        -0.45403966010000   -1.33610582010000   -0.00379959620000
C        -0.76925520260000    0.03707198740000    0.00053217640000
C        -2.13714081380000    0.52850938270000    0.00234861210000
C        -3.27181326440000   -0.15588466930000   -0.00030807660000
F        -3.44408619290000   -1.47224965640000   -0.00538860300000
F        -4.46944799610000    0.43259750130000    0.00193036040000
C         0.24993646990000    0.98702254610000    0.00331695150000
H         4.03971177030000    2.80791286650000    0.00857822760000
H         2.52040007830000    3.04909543350000    0.89616193020000
H         2.52138579900000    3.05397025050000   -0.87935053460000
H         4.75943815610000    0.43002898860000    0.00076265450000
H         1.07160894270000   -2.84341715750000   -0.00868219790000
H        -1.25345221270000   -2.05785365090000   -0.00589397190000
H        -2.26036604330000    1.60245550500000    0.00635378810000
H         0.02149234990000    2.04267851450000    0.00665599200000
