
Running Job 1 of 1 fragments/C149/conf-3/spe_input.inp
qchem fragments/C149/conf-3/spe_input.inp_190018.0 /gpfs/fs0/scratch/a/aspuru/rhickman/descriptor_computation/qchem190018/ 0
/scinet/niagara/software/commercial/qc52/exe/qcprog.exe_s fragments/C149/conf-3/spe_input.inp_190018.0 /gpfs/fs0/scratch/a/aspuru/rhickman/descriptor_computation/qchem190018/
                  Welcome to Q-Chem
     A Quantum Leap Into The Future Of Chemistry


 Q-Chem 5.2, Q-Chem, Inc., Pleasanton, CA (2019)

 License issued to: SRG Alan Aspuru-Guzik, University of Toronto

 Yihan Shao,  Zhengting Gan,  E. Epifanovsky,  A. T. B. Gilbert,  M. Wormit,  
 J. Kussmann,  A. W. Lange,  A. Behn,  Jia Deng,  Xintian Feng,  D. Ghosh,  
 M. Goldey,  P. R. Horn,  L. D. Jacobson,  I. Kaliman,  T. Kus,  A. Landau,  
 Jie Liu,  E. I. Proynov,  R. M. Richard,  R. P. Steele,  E. J. Sundstrom,  
 H. L. Woodcock III,  P. M. Zimmerman,  D. Zuev,  B. Albrecht,  E. Alguire,  
 S. A. Baeppler,  D. Barton,  Z. Benda,  Y. A. Bernard,  E. J. Berquist,  
 K. B. Bravaya,  H. Burton,  D. Casanova,  Chun-Min Chang,  Yunqing Chen,  
 A. Chien,  K. D. Closser,  M. P. Coons,  S. Coriani,  S. Dasgupta,  
 A. L. Dempwolff,  M. Diedenhofen,  Hainam Do,  R. G. Edgar,  Po-Tung Fang,  
 S. Faraji,  S. Fatehi,  Qingguo Feng,  K. D. Fenk,  J. Fosso-Tande,  
 J. Gayvert,  Qinghui Ge,  A. Ghysels,  G. Gidofalvi,  J. Gomes,  
 J. Gonthier,  A. Gunina,  D. Hait,  M. W. D. Hanson-Heine,  
 P. H. P. Harbach,  A. W. Hauser,  M. F. Herbst,  J. E. Herr,  
 E. G. Hohenstein,  Z. C. Holden,  Kerwin Hui,  B. C. Huynh,  T.-C. Jagau,  
 Hyunjun Ji,  B. Kaduk,  K. Khistyaev,  Jaehoon Kim,  P. Klunzinger,  K. Koh,  
 D. Kosenkov,  L. Koulias,  T. Kowalczyk,  C. M. Krauter,  A. Kunitsa,  
 Ka Un Lao,  A. Laurent,  K. V. Lawler,  Joonho Lee,  D. Lefrancois,  
 S. Lehtola,  D. S. Levine,  Yi-Pei Li,  You-Sheng Lin,  Fenglai Liu,  
 E. Livshits,  A. Luenser,  P. Manohar,  E. Mansoor,  S. F. Manzer,  
 Shan-Ping Mao,  Yuezhi Mao,  N. Mardirossian,  A. V. Marenich,  
 T. Markovich,  L. A. Martinez-Martinez,  S. A. Maurer,  N. J. Mayhall,  
 S. C. McKenzie,  J.-M. Mewes,  P. Morgante,  A. F. Morrison,  
 J. W. Mullinax,  K. Nanda,  T. S. Nguyen-Beck,  R. Olivares-Amaya,  
 J. A. Parkhill,  Zheng Pei,  T. M. Perrine,  F. Plasser,  P. Pokhilko,  
 S. Prager,  A. Prociuk,  E. Ramos,  D. R. Rehn,  F. Rob,  M. Scheurer,  
 M. Schneider,  N. Sergueev,  S. M. Sharada,  S. Sharma,  D. W. Small,  
 T. Stauch,  T. Stein,  Yu-Chuan Su,  A. J. W. Thom,  A. Tkatchenko,  
 T. Tsuchimochi,  N. M. Tubman,  L. Vogt,  M. L. Vidal,  O. Vydrov,  
 M. A. Watson,  J. Wenzel,  M. de Wergifosse,  T. A. Wesolowski,  A. White,  
 J. Witte,  A. Yamada,  Jun Yang,  K. Yao,  S. Yeganeh,  S. R. Yost,  
 Zhi-Qiang You,  A. Zech,  Igor Ying Zhang,  Xing Zhang,  Yan Zhao,  
 Ying Zhu,  B. R. Brooks,  G. K. L. Chan,  C. J. Cramer,  M. S. Gordon,  
 W. J. Hehre,  A. Klamt,  M. W. Schmidt,  C. D. Sherrill,  D. G. Truhlar,  
 A. Aspuru-Guzik,  R. Baer,  A. T. Bell,  N. A. Besley,  Jeng-Da Chai,  
 A. E. DePrince, III,  R. A. DiStasio Jr.,  A. Dreuw,  B. D. Dunietz,  
 T. R. Furlani,  Chao-Ping Hsu,  Yousung Jung,  Jing Kong,  D. S. Lambrecht,  
 WanZhen Liang,  C. Ochsenfeld,  V. A. Rassolov,  L. V. Slipchenko,  
 J. E. Subotnik,  T. Van Voorhis,  J. M. Herbert,  A. I. Krylov,  
 P. M. W. Gill,  M. Head-Gordon

 Contributors to earlier versions of Q-Chem not listed above: 
 R. D. Adamson,  B. Austin,  J. Baker,  G. J. O. Beran,  K. Brandhorst,  
 S. T. Brown,  E. F. C. Byrd,  A. K. Chakraborty,  C.-L. Cheng,  
 Siu Hung Chien,  D. M. Chipman,  D. L. Crittenden,  H. Dachsel,  
 R. J. Doerksen,  A. D. Dutoi,  L. Fusti-Molnar,  W. A. Goddard III,  
 A. Golubeva-Zadorozhnaya,  S. R. Gwaltney,  G. Hawkins,  A. Heyden,  
 S. Hirata,  G. Kedziora,  F. J. Keil,  C. Kelley,  Jihan Kim,  R. A. King,  
 R. Z. Khaliullin,  P. P. Korambath,  W. Kurlancheek,  A. M. Lee,  M. S. Lee,  
 S. V. Levchenko,  Ching Yeh Lin,  D. Liotard,  R. C. Lochan,  I. Lotan,  
 P. E. Maslen,  N. Nair,  D. P. O'Neill,  D. Neuhauser,  E. Neuscamman,  
 C. M. Oana,  R. Olson,  B. Peters,  R. Peverati,  P. A. Pieniazek,  
 Y. M. Rhee,  J. Ritchie,  M. A. Rohrdanz,  E. Rosta,  N. J. Russ,  
 H. F. Schaefer III,  N. E. Schultz,  N. Shenvi,  A. C. Simmonett,  A. Sodt,  
 D. Stuck,  K. S. Thanthiriwatte,  V. Vanovschi,  Tao Wang,  A. Warshel,  
 C. F. Williams,  Q. Wu,  X. Xu,  W. Zhang

 Please cite Q-Chem as follows:
 Y. Shao et al., Mol. Phys. 113, 184-215 (2015)
 DOI: 10.1080/00268976.2014.952696

 Q-Chem 5.2.1 for Intel X86 EM64T Linux

 Parts of Q-Chem use Armadillo 8.300.2 (Tropical Shenanigans).
 http://arma.sourceforge.net/

 Q-Chem begins on Mon Feb  7 18:51:12 2022  

Host: 
0

     Scratch files written to /gpfs/fs0/scratch/a/aspuru/rhickman/descriptor_computation/qchem190018//
 Jul1719 |scratch|qcdevops|jenkins|workspace|build_RNUM -1
Processing $rem in /scinet/niagara/software/commercial/qc52/config/preferences:
	 MEM_TOTAL  4000 
NAlpha2: 104
NElect   104
Mult     1

Checking the input file for inconsistencies... 	...done.

--------------------------------------------------------------
User input:
--------------------------------------------------------------
$molecule
0 1
C         3.94619540860000   -2.03405011180000   -0.62190571510000
C         3.21874900300000   -1.65063258580000    0.41045998670000
C         1.96392809630000   -0.87895337650000    0.28448760700000
C         1.99473260760000    0.50930899020000    0.30291189130000
C         0.84705954290000    1.30301260100000    0.17458565640000
C         0.97407057270000    2.75885362180000    0.16192438170000
C         0.22484330560000    3.59196156800000   -0.54816811730000
C        -0.36202744610000    0.62521687600000    0.07052070130000
C        -0.40826463840000   -0.77888390680000    0.05864997270000
C         0.74355463070000   -1.53882700140000    0.15317918980000
C        -1.81189786590000   -1.18966315690000   -0.04536823510000
O        -2.28977853590000   -2.29193326150000   -0.10883591940000
C        -2.59972843190000    0.14898465790000   -0.04954896340000
O        -3.79049838390000    0.31671715230000   -0.08976761180000
N        -1.65213505820000    1.13417376560000    0.00241997350000
H         4.85496281620000   -2.59834922390000   -0.50097084880000
H         3.65778695310000   -1.79759102230000   -1.63298951690000
H         3.51743145270000   -1.89531003520000    1.42265075420000
H         2.95069428000000    1.00432735650000    0.40125621280000
H         1.78531025170000    3.14979438060000    0.76319282530000
H        -0.54821434080000    3.25083350020000   -1.21663820240000
H         0.38992544280000    4.65527212980000   -0.52014009730000
H         0.69038516010000   -2.61610243790000    0.13411122580000
H        -1.86905105070000    2.11627230670000    0.07703256740000
$end

$rem
BASIS = 6-31G*
GUI = 2
METHOD = B3LYP
PRINT_ORBITALS false
MOLDEN_FORMAT false
--------------------------------------------------------------
 ----------------------------------------------------------------
             Standard Nuclear Orientation (Angstroms)
    I     Atom           X                Y                Z
 ----------------------------------------------------------------
    1      C      -4.2690953935    -0.9506249542     0.7012578194
    2      C      -3.4833530717    -0.7882577105    -0.3466983326
    3      C      -2.0671308654    -0.3748455372    -0.2500629990
    4      C      -1.7297157409     0.9715774211    -0.2931561782
    5      C      -0.4109371283     1.4346417079    -0.1932514983
    6      C      -0.1478825115     2.8721472315    -0.2053066063
    7      C       0.8068013723     3.4869869746     0.4803992179
    8      C       0.5772015353     0.4623156597    -0.0918022788
    9      C       0.2503659312    -0.9035591368    -0.0551644771
   10      C      -1.0629142504    -1.3324957758    -0.1218385569
   11      C       1.4967544531    -1.6699713938     0.0390348966
   12      O       1.6668486790    -2.8584416471     0.1165195832
   13      C       2.6107398673    -0.5879220411     0.0094013575
   14      O       3.8039380659    -0.7410650211     0.0319866280
   15      N       1.9569534223     0.6122517526    -0.0487166209
   16      H      -5.2966839442    -1.2556853995     0.6016745576
   17      H      -3.9116470356    -0.7847259588     1.7042986895
   18      H      -3.8529010695    -0.9593747030    -1.3505716622
   19      H      -2.5220710698     1.7007026903    -0.3886908957
   20      H      -0.8365910043     3.4554683393    -0.8035417875
   21      H       1.4729939464     2.9627594901     1.1453892455
   22      H       0.9285839397     4.5555347574     0.4352143230
   23      H      -1.2964475034    -2.3849892336    -0.0839877057
   24      H       2.4247906396     1.5006464235    -0.1436922927
 ----------------------------------------------------------------
 Molecular Point Group                 C1    NOp =  1
 Largest Abelian Subgroup              C1    NOp =  1
 Nuclear Repulsion Energy =         899.02456146 hartrees
 There are       52 alpha and       52 beta electrons
 Requested basis set is 6-31G(d)
 There are 78 shells and 243 basis functions

 Total QAlloc Memory Limit   4000 MB
 Mega-Array Size       188 MB
 MEM_STATIC part       192 MB
 A cutoff of  1.0D-08 yielded   1987 shell pairs
 There are     21169 function pairs
 Smallest overlap matrix eigenvalue = 2.79E-04

 Scale SEOQF with 1.000000e-02/1.000000e-01/1.000000e-01

 Standard Electronic Orientation quadrupole field applied
 Nucleus-field energy     =     0.0000000228 hartrees
 Guess from superposition of atomic densities
 Warning:  Energy on first SCF cycle will be non-variational
 SAD guess density has 104.000000 electrons

 -----------------------------------------------------------------------
  General SCF calculation program by
  Eric Jon Sundstrom, Paul Horn, Yuezhi Mao, Dmitri Zuev, Alec White,
  David Stuck, Shaama M.S., Shane Yost, Joonho Lee, David Small,
  Daniel Levine, Susi Lehtola, Hugh Burton, Evgeny Epifanovsky,
  Bang C. Huynh
 -----------------------------------------------------------------------
 Exchange:     0.2000 Hartree-Fock + 0.0800 Slater + 0.7200 B88
 Correlation:  0.1900 VWN1RPA + 0.8100 LYP
 Using SG-1 standard quadrature grid
 A restricted SCF calculation will be
 performed using DIIS
 SCF converges when DIIS error is below 1.0e-05
 ---------------------------------------
  Cycle       Energy         DIIS error
 ---------------------------------------
    1    -671.5730653020      5.34e-02  
    2    -667.5725273261      6.41e-03  
    3    -666.9575207828      1.24e-02  
    4    -667.8063922640      2.52e-03  
    5    -667.8483519640      5.96e-04  
    6    -667.8501402239      2.76e-04  
    7    -667.8506209290      8.81e-05  
    8    -667.8506780033      2.44e-05  
    9    -667.8506816334      8.13e-06  Convergence criterion met
 ---------------------------------------
 SCF time:   CPU 41.05s  wall 41.00s 
 SCF   energy in the final basis set =     -667.8506816334
 Total energy in the final basis set =     -667.8506816334
 
 --------------------------------------------------------------
 
                    Orbital Energies (a.u.)
 --------------------------------------------------------------
 
 Alpha MOs
 -- Occupied --
-19.1613 -19.1450 -14.3907 -10.3036 -10.2876 -10.2586 -10.2211 -10.2160
-10.2156 -10.2152 -10.2111 -10.2065 -10.2032 -10.2017 -10.1923  -1.0747
 -1.0514  -0.9854  -0.8819  -0.8272  -0.8041  -0.7650  -0.7417  -0.7172
 -0.6545  -0.6258  -0.6025  -0.5761  -0.5681  -0.5410  -0.5113  -0.4925
 -0.4808  -0.4785  -0.4716  -0.4553  -0.4478  -0.4408  -0.4336  -0.4140
 -0.4003  -0.3924  -0.3913  -0.3725  -0.3570  -0.3261  -0.3162  -0.3093
 -0.2795  -0.2616  -0.2451  -0.2315
 -- Virtual --
 -0.0966  -0.0462   0.0042   0.0101   0.0255   0.0827   0.0894   0.1023
  0.1243   0.1272   0.1400   0.1418   0.1582   0.1737   0.1788   0.1861
  0.2010   0.2317   0.2407   0.2644   0.2667   0.2950   0.3205   0.3261
  0.3329   0.3380   0.3614   0.3769   0.4112   0.4182   0.4518   0.4821
  0.4925   0.5022   0.5064   0.5216   0.5312   0.5471   0.5556   0.5564
  0.5706   0.5736   0.5852   0.5869   0.5925   0.6158   0.6307   0.6328
  0.6520   0.6599   0.6698   0.6779   0.6821   0.6971   0.7059   0.7148
  0.7216   0.7549   0.7890   0.7972   0.8104   0.8184   0.8225   0.8307
  0.8499   0.8527   0.8693   0.8799   0.8897   0.9086   0.9155   0.9318
  0.9399   0.9535   0.9606   0.9810   0.9929   1.0198   1.0319   1.0427
  1.0536   1.0847   1.0907   1.1223   1.1370   1.1385   1.1487   1.1758
  1.1976   1.2126   1.2365   1.2673   1.2944   1.3172   1.3301   1.3394
  1.3694   1.3955   1.4198   1.4315   1.4368   1.4571   1.4819   1.4921
  1.5254   1.5860   1.6164   1.6398   1.6532   1.6642   1.6934   1.7083
  1.7144   1.7573   1.7641   1.7675   1.7894   1.7990   1.8099   1.8217
  1.8292   1.8678   1.8835   1.9061   1.9215   1.9532   1.9640   1.9826
  1.9968   2.0178   2.0378   2.0468   2.0801   2.0870   2.1079   2.1106
  2.1367   2.1604   2.1798   2.1871   2.2179   2.2322   2.2567   2.2802
  2.2922   2.3243   2.3388   2.3711   2.4164   2.4251   2.4336   2.4504
  2.4835   2.5136   2.5446   2.5782   2.6130   2.6484   2.6538   2.7038
  2.7278   2.7542   2.7778   2.7846   2.8219   2.8714   2.8738   2.9123
  2.9448   2.9603   3.0235   3.0551   3.1501   3.1940   3.3122   3.4830
  3.9221   4.0557   4.0920   4.1224   4.1314   4.1379   4.1843   4.2280
  4.3225   4.3594   4.4262   4.4878   4.5039   4.7848   4.9715
 --------------------------------------------------------------
 
          Ground-State Mulliken Net Atomic Charges

     Atom                 Charge (a.u.)
  ----------------------------------------
      1 C                    -0.301924
      2 C                    -0.164762
      3 C                     0.108378
      4 C                    -0.240754
      5 C                     0.155423
      6 C                    -0.119363
      7 C                    -0.360912
      8 C                     0.260894
      9 C                     0.068369
     10 C                    -0.217786
     11 C                     0.319559
     12 O                    -0.425890
     13 C                     0.576235
     14 O                    -0.454668
     15 N                    -0.754496
     16 H                     0.148915
     17 H                     0.150260
     18 H                     0.150900
     19 H                     0.142832
     20 H                     0.147058
     21 H                     0.152601
     22 H                     0.157092
     23 H                     0.162922
     24 H                     0.339116
  ----------------------------------------
  Sum of atomic charges =     0.000000

 -----------------------------------------------------------------
                    Cartesian Multipole Moments
 -----------------------------------------------------------------
    Charge (ESU x 10^10)
                 0.0000
    Dipole Moment (Debye)
         X      -4.1851      Y       4.3540      Z      -0.4469
       Tot       6.0558
    Quadrupole Moments (Debye-Ang)
        XX     -92.5518     XY      11.8483     YY     -85.5628
        XZ       0.8233     YZ       0.0299     ZZ     -83.2872
    Octopole Moments (Debye-Ang^2)
       XXX     -69.5327    XXY      20.9744    XYY      -6.1581
       YYY      43.6588    XXZ      -1.5145    XYZ       4.8987
       YYZ      -4.0389    XZZ       6.8359    YZZ      -7.9960
       ZZZ       2.1996
    Hexadecapole Moments (Debye-Ang^3)
      XXXX   -2742.4832   XXXY     118.7817   XXYY    -708.5201
      XYYY      47.6012   YYYY   -1537.5745   XXXZ      -8.3894
      XXYZ       0.8003   XYYZ      14.2071   YYYZ       0.1923
      XXZZ    -430.6015   XYZZ      -6.5881   YYZZ    -287.5291
      XZZZ      -0.0285   YZZZ      -2.6021   ZZZZ    -143.8802
 -----------------------------------------------------------------
Archival summary:
1\1\nia1977.scinet.local\SP\ProcedureUnspecified\6-31G*\21129\rhickman\MonFeb718:51:542022MonFeb718:51:542022\0\\#,ProcedureUnspecified,6-31G*,\\0,1\N\H,1,1.00853\C,1,1.36793,2,123.721\O,3,1.2032,1,125.904,2,4.43762,0\C,1,1.38854,2,123.583,3,-173.571,0\C,5,1.39001,1,129.28,2,-3.7306,0\C,6,1.40128,5,116.3,1,176.376,0\H,7,1.08101,6,118.244,5,-179.088,0\C,7,1.38873,6,123.151,5,2.15617,0\C,9,1.39355,7,119.606,6,-0.992128,0\H,10,1.07876,9,121.178,7,179.889,0\C,10,1.38316,9,118.394,7,-0.663821,0\C,6,1.46143,5,124.105,1,-3.39413,0\H,13,1.08281,6,114.832,5,147.509,0\C,13,1.32651,6,125.535,5,-35.1408,0\H,15,1.07641,13,121.321,6,-178.839,0\H,15,1.07742,13,122.584,6,-1.71469,0\C,12,1.4662,10,130.4,9,-177.977,0\O,18,1.20308,12,129.844,10,-2.23316,0\C,9,1.47849,7,120.12,6,179.317,0\H,20,1.08333,9,115.562,7,89.3205,0\C,20,1.31984,9,123.557,7,-90.8886,0\H,22,1.07653,20,121.984,9,-179.801,0\H,22,1.07767,20,121.508,9,0.12154,0\\\@

 Total job time:  41.38s(wall), 41.25s(cpu) 
 Mon Feb  7 18:51:54 2022

        *************************************************************
        *                                                           *
        *  Thank you very much for using Q-Chem.  Have a nice day.  *
        *                                                           *
        *************************************************************


