
Running Job 1 of 1 fragments/C032/conf-1/spe_input.inp
qchem fragments/C032/conf-1/spe_input.inp_94059.0 /gpfs/fs0/scratch/a/aspuru/rhickman/descriptor_computation/qchem94059/ 0
/scinet/niagara/software/commercial/qc52/exe/qcprog.exe_s fragments/C032/conf-1/spe_input.inp_94059.0 /gpfs/fs0/scratch/a/aspuru/rhickman/descriptor_computation/qchem94059/
                  Welcome to Q-Chem
     A Quantum Leap Into The Future Of Chemistry


 Q-Chem 5.2, Q-Chem, Inc., Pleasanton, CA (2019)

 License issued to: SRG Alan Aspuru-Guzik, University of Toronto

 Yihan Shao,  Zhengting Gan,  E. Epifanovsky,  A. T. B. Gilbert,  M. Wormit,  
 J. Kussmann,  A. W. Lange,  A. Behn,  Jia Deng,  Xintian Feng,  D. Ghosh,  
 M. Goldey,  P. R. Horn,  L. D. Jacobson,  I. Kaliman,  T. Kus,  A. Landau,  
 Jie Liu,  E. I. Proynov,  R. M. Richard,  R. P. Steele,  E. J. Sundstrom,  
 H. L. Woodcock III,  P. M. Zimmerman,  D. Zuev,  B. Albrecht,  E. Alguire,  
 S. A. Baeppler,  D. Barton,  Z. Benda,  Y. A. Bernard,  E. J. Berquist,  
 K. B. Bravaya,  H. Burton,  D. Casanova,  Chun-Min Chang,  Yunqing Chen,  
 A. Chien,  K. D. Closser,  M. P. Coons,  S. Coriani,  S. Dasgupta,  
 A. L. Dempwolff,  M. Diedenhofen,  Hainam Do,  R. G. Edgar,  Po-Tung Fang,  
 S. Faraji,  S. Fatehi,  Qingguo Feng,  K. D. Fenk,  J. Fosso-Tande,  
 J. Gayvert,  Qinghui Ge,  A. Ghysels,  G. Gidofalvi,  J. Gomes,  
 J. Gonthier,  A. Gunina,  D. Hait,  M. W. D. Hanson-Heine,  
 P. H. P. Harbach,  A. W. Hauser,  M. F. Herbst,  J. E. Herr,  
 E. G. Hohenstein,  Z. C. Holden,  Kerwin Hui,  B. C. Huynh,  T.-C. Jagau,  
 Hyunjun Ji,  B. Kaduk,  K. Khistyaev,  Jaehoon Kim,  P. Klunzinger,  K. Koh,  
 D. Kosenkov,  L. Koulias,  T. Kowalczyk,  C. M. Krauter,  A. Kunitsa,  
 Ka Un Lao,  A. Laurent,  K. V. Lawler,  Joonho Lee,  D. Lefrancois,  
 S. Lehtola,  D. S. Levine,  Yi-Pei Li,  You-Sheng Lin,  Fenglai Liu,  
 E. Livshits,  A. Luenser,  P. Manohar,  E. Mansoor,  S. F. Manzer,  
 Shan-Ping Mao,  Yuezhi Mao,  N. Mardirossian,  A. V. Marenich,  
 T. Markovich,  L. A. Martinez-Martinez,  S. A. Maurer,  N. J. Mayhall,  
 S. C. McKenzie,  J.-M. Mewes,  P. Morgante,  A. F. Morrison,  
 J. W. Mullinax,  K. Nanda,  T. S. Nguyen-Beck,  R. Olivares-Amaya,  
 J. A. Parkhill,  Zheng Pei,  T. M. Perrine,  F. Plasser,  P. Pokhilko,  
 S. Prager,  A. Prociuk,  E. Ramos,  D. R. Rehn,  F. Rob,  M. Scheurer,  
 M. Schneider,  N. Sergueev,  S. M. Sharada,  S. Sharma,  D. W. Small,  
 T. Stauch,  T. Stein,  Yu-Chuan Su,  A. J. W. Thom,  A. Tkatchenko,  
 T. Tsuchimochi,  N. M. Tubman,  L. Vogt,  M. L. Vidal,  O. Vydrov,  
 M. A. Watson,  J. Wenzel,  M. de Wergifosse,  T. A. Wesolowski,  A. White,  
 J. Witte,  A. Yamada,  Jun Yang,  K. Yao,  S. Yeganeh,  S. R. Yost,  
 Zhi-Qiang You,  A. Zech,  Igor Ying Zhang,  Xing Zhang,  Yan Zhao,  
 Ying Zhu,  B. R. Brooks,  G. K. L. Chan,  C. J. Cramer,  M. S. Gordon,  
 W. J. Hehre,  A. Klamt,  M. W. Schmidt,  C. D. Sherrill,  D. G. Truhlar,  
 A. Aspuru-Guzik,  R. Baer,  A. T. Bell,  N. A. Besley,  Jeng-Da Chai,  
 A. E. DePrince, III,  R. A. DiStasio Jr.,  A. Dreuw,  B. D. Dunietz,  
 T. R. Furlani,  Chao-Ping Hsu,  Yousung Jung,  Jing Kong,  D. S. Lambrecht,  
 WanZhen Liang,  C. Ochsenfeld,  V. A. Rassolov,  L. V. Slipchenko,  
 J. E. Subotnik,  T. Van Voorhis,  J. M. Herbert,  A. I. Krylov,  
 P. M. W. Gill,  M. Head-Gordon

 Contributors to earlier versions of Q-Chem not listed above: 
 R. D. Adamson,  B. Austin,  J. Baker,  G. J. O. Beran,  K. Brandhorst,  
 S. T. Brown,  E. F. C. Byrd,  A. K. Chakraborty,  C.-L. Cheng,  
 Siu Hung Chien,  D. M. Chipman,  D. L. Crittenden,  H. Dachsel,  
 R. J. Doerksen,  A. D. Dutoi,  L. Fusti-Molnar,  W. A. Goddard III,  
 A. Golubeva-Zadorozhnaya,  S. R. Gwaltney,  G. Hawkins,  A. Heyden,  
 S. Hirata,  G. Kedziora,  F. J. Keil,  C. Kelley,  Jihan Kim,  R. A. King,  
 R. Z. Khaliullin,  P. P. Korambath,  W. Kurlancheek,  A. M. Lee,  M. S. Lee,  
 S. V. Levchenko,  Ching Yeh Lin,  D. Liotard,  R. C. Lochan,  I. Lotan,  
 P. E. Maslen,  N. Nair,  D. P. O'Neill,  D. Neuhauser,  E. Neuscamman,  
 C. M. Oana,  R. Olson,  B. Peters,  R. Peverati,  P. A. Pieniazek,  
 Y. M. Rhee,  J. Ritchie,  M. A. Rohrdanz,  E. Rosta,  N. J. Russ,  
 H. F. Schaefer III,  N. E. Schultz,  N. Shenvi,  A. C. Simmonett,  A. Sodt,  
 D. Stuck,  K. S. Thanthiriwatte,  V. Vanovschi,  Tao Wang,  A. Warshel,  
 C. F. Williams,  Q. Wu,  X. Xu,  W. Zhang

 Please cite Q-Chem as follows:
 Y. Shao et al., Mol. Phys. 113, 184-215 (2015)
 DOI: 10.1080/00268976.2014.952696

 Q-Chem 5.2.1 for Intel X86 EM64T Linux

 Parts of Q-Chem use Armadillo 8.300.2 (Tropical Shenanigans).
 http://arma.sourceforge.net/

 Q-Chem begins on Mon Feb  7 15:21:47 2022  

Host: 
0

     Scratch files written to /gpfs/fs0/scratch/a/aspuru/rhickman/descriptor_computation/qchem94059//
 Jul1719 |scratch|qcdevops|jenkins|workspace|build_RNUM -1
Processing $rem in /scinet/niagara/software/commercial/qc52/config/preferences:
	 MEM_TOTAL  4000 
NAlpha2: 102
NElect   102
Mult     1

Checking the input file for inconsistencies... 	...done.

--------------------------------------------------------------
User input:
--------------------------------------------------------------
$molecule
0 1
C         3.86525082180000   -1.75552989600000    0.13870379820000
C         3.51397822020000   -0.47953324910000    0.03081764110000
C         2.15535832750000    0.04072301220000   -0.02536392290000
C         1.01062837080000   -0.76189952870000    0.00732552060000
C        -0.23299221220000   -0.15814614180000   -0.04199093450000
C        -1.47147069670000   -1.01299592200000    0.01696504440000
F        -1.19986377490000   -2.30832384890000    0.23008580350000
F        -2.31173510170000   -0.64138035240000    0.99865514610000
F        -2.18386755770000   -0.96779947320000   -1.12590056010000
C        -0.33962977160000    1.23805853920000   -0.12652916670000
C        -1.61933105640000    1.93208983890000   -0.18644532210000
C        -1.82306062750000    3.15551371050000    0.28620210670000
C         0.87709358570000    1.93249318780000   -0.16887791460000
N         2.05864274150000    1.36822373690000   -0.11702060620000
H         4.90104929130000   -2.04565067950000    0.17344337630000
H         3.14993289440000   -2.55825522260000    0.19756731620000
H         4.26698801790000    0.29451039310000   -0.02241751720000
H         1.08934496180000   -1.83431147950000    0.07549666950000
H        -2.43958753310000    1.39214990390000   -0.63860058830000
H        -1.04872000530000    3.71831013710000    0.77956635670000
H        -2.78752514470000    3.62691185490000    0.21592729720000
H         0.87999147780000    3.00935253010000   -0.26868149840000
$end

$rem
BASIS = 6-31G*
GUI = 2
METHOD = B3LYP
PRINT_ORBITALS false
MOLDEN_FORMAT false
--------------------------------------------------------------
 ----------------------------------------------------------------
             Standard Nuclear Orientation (Angstroms)
    I     Atom           X                Y                Z
 ----------------------------------------------------------------
    1      C       4.1182476608    -0.8487700816     0.1236109368
    2      C       3.4737513320     0.3081609405     0.0269962454
    3      C       2.0303577634     0.4912370890    -0.0256258831
    4      C       1.1091237454    -0.5606226833    -0.0011898452
    5      C      -0.2423902550    -0.2691846847    -0.0460921719
    6      C      -1.2422463475    -1.3942828468     0.0040559167
    7      F      -0.6704028853    -2.5898651351     0.2056576596
    8      F      -2.1454374668    -1.2417880894     0.9883571961
    9      F      -1.9464986205    -1.5093327214    -1.1389602944
   10      C      -0.6777823508     1.0624158264    -0.1180615733
   11      C      -2.0858053696     1.4330670426    -0.1727755883
   12      C      -2.5737239882     2.5687552924     0.3107685367
   13      C       0.3390732123     2.0263802413    -0.1530758043
   14      N       1.6209161015     1.7585248077    -0.1053277633
   15      H       5.1933607248    -0.8848092009     0.1566027291
   16      H       3.6141905542    -1.7989493523     0.1745853206
   17      H       4.0212425273     1.2393846999    -0.0185778541
   18      H       1.4404493091    -1.5841999634     0.0573244446
   19      H      -2.7549034780     0.7178114318    -0.6305062277
   20      H      -1.9546025501     3.2949325487     0.8098744747
   21      H      -3.6226584649     2.7981412552     0.2439470731
   22      H       0.0859270033     3.0739516255    -0.2431112861
 ----------------------------------------------------------------
 Molecular Point Group                 C1    NOp =  1
 Largest Abelian Subgroup              C1    NOp =  1
 Nuclear Repulsion Energy =         886.03498613 hartrees
 There are       51 alpha and       51 beta electrons
 Requested basis set is 6-31G(d)
 There are 72 shells and 226 basis functions

 Total QAlloc Memory Limit   4000 MB
 Mega-Array Size       188 MB
 MEM_STATIC part       192 MB
 A cutoff of  1.0D-08 yielded   1723 shell pairs
 There are     18682 function pairs
 Smallest overlap matrix eigenvalue = 5.15E-04

 Scale SEOQF with 1.000000e-01/1.000000e-01/1.000000e+00

 Standard Electronic Orientation quadrupole field applied
 Nucleus-field energy     =     0.0000000101 hartrees
 Guess from superposition of atomic densities
 Warning:  Energy on first SCF cycle will be non-variational
 SAD guess density has 102.000000 electrons

 -----------------------------------------------------------------------
  General SCF calculation program by
  Eric Jon Sundstrom, Paul Horn, Yuezhi Mao, Dmitri Zuev, Alec White,
  David Stuck, Shaama M.S., Shane Yost, Joonho Lee, David Small,
  Daniel Levine, Susi Lehtola, Hugh Burton, Evgeny Epifanovsky,
  Bang C. Huynh
 -----------------------------------------------------------------------
 Exchange:     0.2000 Hartree-Fock + 0.0800 Slater + 0.7200 B88
 Correlation:  0.1900 VWN1RPA + 0.8100 LYP
 Using SG-1 standard quadrature grid
 A restricted SCF calculation will be
 performed using DIIS
 SCF converges when DIIS error is below 1.0e-05
 ---------------------------------------
  Cycle       Energy         DIIS error
 ---------------------------------------
    1    -743.1592258957      5.25e-02  
    2    -739.9035687903      6.11e-03  
    3    -739.7880665278      8.08e-03  
    4    -740.1045023652      1.44e-03  
    5    -740.1156051521      5.17e-04  
    6    -740.1171215524      2.15e-04  
    7    -740.1173958569      4.36e-05  
    8    -740.1174046433      2.04e-05  
    9    -740.1174073685      3.89e-06  Convergence criterion met
 ---------------------------------------
 SCF time:   CPU 33.10s  wall 33.00s 
 SCF   energy in the final basis set =     -740.1174073685
 Total energy in the final basis set =     -740.1174073685
 
 --------------------------------------------------------------
 
                    Orbital Energies (a.u.)
 --------------------------------------------------------------
 
 Alpha MOs
 -- Occupied --
-24.7330 -24.7290 -24.7278 -14.3379 -10.4397 -10.2396 -10.2330 -10.2319
-10.2223 -10.2146 -10.2045 -10.1973 -10.1952 -10.1942  -1.3145  -1.2236
 -1.2200  -0.9651  -0.8531  -0.8197  -0.7896  -0.7390  -0.7180  -0.6716
 -0.6444  -0.6015  -0.5935  -0.5883  -0.5876  -0.5453  -0.5189  -0.4897
 -0.4759  -0.4699  -0.4657  -0.4604  -0.4555  -0.4340  -0.4249  -0.4199
 -0.4145  -0.4033  -0.4019  -0.3843  -0.3735  -0.3653  -0.3356  -0.3029
 -0.2860  -0.2638  -0.2335
 -- Virtual --
 -0.0660  -0.0386   0.0050   0.0624   0.1015   0.1134   0.1221   0.1253
  0.1394   0.1505   0.1630   0.1883   0.1936   0.2005   0.2210   0.2367
  0.2542   0.2553   0.3024   0.3064   0.3280   0.3352   0.3698   0.3740
  0.4198   0.4344   0.4646   0.4745   0.4848   0.4919   0.5175   0.5278
  0.5427   0.5468   0.5583   0.5657   0.5792   0.5889   0.6117   0.6244
  0.6320   0.6449   0.6515   0.6625   0.6757   0.6829   0.6898   0.7286
  0.7369   0.7632   0.7991   0.8305   0.8446   0.8587   0.8615   0.8699
  0.8719   0.8771   0.9065   0.9220   0.9454   0.9499   0.9795   0.9917
  1.0086   1.0261   1.0469   1.0547   1.1001   1.1182   1.1254   1.1344
  1.1621   1.1755   1.1958   1.2155   1.2383   1.2593   1.2638   1.2833
  1.3130   1.3304   1.3500   1.3646   1.3787   1.3932   1.4175   1.4362
  1.4520   1.4729   1.4781   1.5065   1.5087   1.5265   1.5875   1.6032
  1.6405   1.6558   1.6671   1.6711   1.6803   1.7041   1.7672   1.7803
  1.7854   1.8296   1.8333   1.8564   1.8717   1.8949   1.9077   1.9389
  1.9620   1.9680   1.9817   1.9857   2.0074   2.0142   2.0312   2.0675
  2.0763   2.0889   2.1040   2.1186   2.1447   2.1545   2.1818   2.1923
  2.2110   2.2474   2.2687   2.2902   2.3063   2.3162   2.3551   2.3849
  2.4139   2.4249   2.4419   2.4865   2.5180   2.5704   2.6228   2.6292
  2.6536   2.6741   2.7069   2.7222   2.7621   2.7888   2.8051   2.8816
  2.9045   2.9343   3.0143   3.0345   3.0368   3.1159   3.1588   3.2622
  3.4515   4.0388   4.0703   4.1042   4.1423   4.1641   4.2257   4.2646
  4.2798   4.3975   4.4338   4.5215   4.7139   4.8372   5.6971
 --------------------------------------------------------------
 
          Ground-State Mulliken Net Atomic Charges

     Atom                 Charge (a.u.)
  ----------------------------------------
      1 C                    -0.345413
      2 C                    -0.088914
      3 C                     0.302572
      4 C                    -0.217559
      5 C                    -0.033343
      6 C                     0.799034
      7 F                    -0.264021
      8 F                    -0.262476
      9 F                    -0.265442
     10 C                     0.092114
     11 C                    -0.122806
     12 C                    -0.336597
     13 C                    -0.009448
     14 N                    -0.474252
     15 H                     0.155065
     16 H                     0.148652
     17 H                     0.150547
     18 H                     0.159455
     19 H                     0.157284
     20 H                     0.153163
     21 H                     0.154366
     22 H                     0.148017
  ----------------------------------------
  Sum of atomic charges =     0.000000

 -----------------------------------------------------------------
                    Cartesian Multipole Moments
 -----------------------------------------------------------------
    Charge (ESU x 10^10)
                 0.0000
    Dipole Moment (Debye)
         X       0.2964      Y       0.2949      Z       0.0602
       Tot       0.4224
    Quadrupole Moments (Debye-Ang)
        XX     -72.7537     XY      -8.3812     YY     -76.8627
        XZ       0.7679     YZ       0.7724     ZZ     -80.8361
    Octopole Moments (Debye-Ang^2)
       XXX     -15.3151    XXY     -13.6766    XYY     -17.9300
       YYY     -29.0650    XXZ       0.0707    XYZ      -1.8478
       YYZ       4.5694    XZZ     -13.7044    YZZ     -13.5764
       ZZZ       0.4733
    Hexadecapole Moments (Debye-Ang^3)
      XXXX   -2004.5128   XXXY      -4.6794   XXYY    -548.8641
      XYYY       6.3393   YYYY   -1136.0872   XXXZ      12.7094
      XXYZ       0.9494   XYYZ      -7.3756   YYYZ      13.8720
      XXZZ    -427.1648   XYZZ      23.0153   YYZZ    -224.5135
      XZZZ      -1.2339   YZZZ      -0.3279   ZZZZ    -149.6046
 -----------------------------------------------------------------
Archival summary:
1\1\nia1977.scinet.local\SP\ProcedureUnspecified\6-31G*\31108\rhickman\MonFeb715:22:212022MonFeb715:22:212022\0\\#,ProcedureUnspecified,6-31G*,\\0,1\F\C,1,1.34457\F,2,1.34055,1,106.117\F,2,1.34748,1,106.235,3,112.433,0\C,2,1.50601,1,112.682,3,-123.959,0\C,5,1.38331,2,119.352,1,125.535,0\H,6,1.07746,5,120.156,2,0.717948,0\C,6,1.39846,5,118.985,2,-178.938,0\N,8,1.33417,6,120.886,5,-0.709903,0\C,9,1.3104,8,119.771,6,0.434356,0\H,10,1.08148,9,115.468,8,-178.456,0\C,10,1.40159,9,124.625,8,0.432868,0\C,8,1.45591,6,123.909,5,179.512,0\H,13,1.0812,8,113.091,6,179.088,0\C,13,1.32786,8,126.398,6,-1.05645,0\H,15,1.07622,13,121.083,8,-179.962,0\H,15,1.07681,13,123.029,8,-0.0244318,0\C,12,1.45702,10,121.682,9,179.886,0\H,18,1.08111,12,116.467,10,149.948,0\C,18,1.32728,12,124.003,10,-30.7311,0\H,20,1.0758,18,121.215,12,179.849,0\H,20,1.07692,18,122.309,12,-1.75206,0\\\@

 Total job time:  33.38s(wall), 33.27s(cpu) 
 Mon Feb  7 15:22:21 2022

        *************************************************************
        *                                                           *
        *  Thank you very much for using Q-Chem.  Have a nice day.  *
        *                                                           *
        *************************************************************


