
Running Job 1 of 1 fragments/C030/conf-2/spe_input.inp
qchem fragments/C030/conf-2/spe_input.inp_326573.0 /gpfs/fs0/scratch/a/aspuru/rhickman/descriptor_computation/qchem326573/ 0
/scinet/niagara/software/commercial/qc52/exe/qcprog.exe_s fragments/C030/conf-2/spe_input.inp_326573.0 /gpfs/fs0/scratch/a/aspuru/rhickman/descriptor_computation/qchem326573/
                  Welcome to Q-Chem
     A Quantum Leap Into The Future Of Chemistry


 Q-Chem 5.2, Q-Chem, Inc., Pleasanton, CA (2019)

 License issued to: SRG Alan Aspuru-Guzik, University of Toronto

 Yihan Shao,  Zhengting Gan,  E. Epifanovsky,  A. T. B. Gilbert,  M. Wormit,  
 J. Kussmann,  A. W. Lange,  A. Behn,  Jia Deng,  Xintian Feng,  D. Ghosh,  
 M. Goldey,  P. R. Horn,  L. D. Jacobson,  I. Kaliman,  T. Kus,  A. Landau,  
 Jie Liu,  E. I. Proynov,  R. M. Richard,  R. P. Steele,  E. J. Sundstrom,  
 H. L. Woodcock III,  P. M. Zimmerman,  D. Zuev,  B. Albrecht,  E. Alguire,  
 S. A. Baeppler,  D. Barton,  Z. Benda,  Y. A. Bernard,  E. J. Berquist,  
 K. B. Bravaya,  H. Burton,  D. Casanova,  Chun-Min Chang,  Yunqing Chen,  
 A. Chien,  K. D. Closser,  M. P. Coons,  S. Coriani,  S. Dasgupta,  
 A. L. Dempwolff,  M. Diedenhofen,  Hainam Do,  R. G. Edgar,  Po-Tung Fang,  
 S. Faraji,  S. Fatehi,  Qingguo Feng,  K. D. Fenk,  J. Fosso-Tande,  
 J. Gayvert,  Qinghui Ge,  A. Ghysels,  G. Gidofalvi,  J. Gomes,  
 J. Gonthier,  A. Gunina,  D. Hait,  M. W. D. Hanson-Heine,  
 P. H. P. Harbach,  A. W. Hauser,  M. F. Herbst,  J. E. Herr,  
 E. G. Hohenstein,  Z. C. Holden,  Kerwin Hui,  B. C. Huynh,  T.-C. Jagau,  
 Hyunjun Ji,  B. Kaduk,  K. Khistyaev,  Jaehoon Kim,  P. Klunzinger,  K. Koh,  
 D. Kosenkov,  L. Koulias,  T. Kowalczyk,  C. M. Krauter,  A. Kunitsa,  
 Ka Un Lao,  A. Laurent,  K. V. Lawler,  Joonho Lee,  D. Lefrancois,  
 S. Lehtola,  D. S. Levine,  Yi-Pei Li,  You-Sheng Lin,  Fenglai Liu,  
 E. Livshits,  A. Luenser,  P. Manohar,  E. Mansoor,  S. F. Manzer,  
 Shan-Ping Mao,  Yuezhi Mao,  N. Mardirossian,  A. V. Marenich,  
 T. Markovich,  L. A. Martinez-Martinez,  S. A. Maurer,  N. J. Mayhall,  
 S. C. McKenzie,  J.-M. Mewes,  P. Morgante,  A. F. Morrison,  
 J. W. Mullinax,  K. Nanda,  T. S. Nguyen-Beck,  R. Olivares-Amaya,  
 J. A. Parkhill,  Zheng Pei,  T. M. Perrine,  F. Plasser,  P. Pokhilko,  
 S. Prager,  A. Prociuk,  E. Ramos,  D. R. Rehn,  F. Rob,  M. Scheurer,  
 M. Schneider,  N. Sergueev,  S. M. Sharada,  S. Sharma,  D. W. Small,  
 T. Stauch,  T. Stein,  Yu-Chuan Su,  A. J. W. Thom,  A. Tkatchenko,  
 T. Tsuchimochi,  N. M. Tubman,  L. Vogt,  M. L. Vidal,  O. Vydrov,  
 M. A. Watson,  J. Wenzel,  M. de Wergifosse,  T. A. Wesolowski,  A. White,  
 J. Witte,  A. Yamada,  Jun Yang,  K. Yao,  S. Yeganeh,  S. R. Yost,  
 Zhi-Qiang You,  A. Zech,  Igor Ying Zhang,  Xing Zhang,  Yan Zhao,  
 Ying Zhu,  B. R. Brooks,  G. K. L. Chan,  C. J. Cramer,  M. S. Gordon,  
 W. J. Hehre,  A. Klamt,  M. W. Schmidt,  C. D. Sherrill,  D. G. Truhlar,  
 A. Aspuru-Guzik,  R. Baer,  A. T. Bell,  N. A. Besley,  Jeng-Da Chai,  
 A. E. DePrince, III,  R. A. DiStasio Jr.,  A. Dreuw,  B. D. Dunietz,  
 T. R. Furlani,  Chao-Ping Hsu,  Yousung Jung,  Jing Kong,  D. S. Lambrecht,  
 WanZhen Liang,  C. Ochsenfeld,  V. A. Rassolov,  L. V. Slipchenko,  
 J. E. Subotnik,  T. Van Voorhis,  J. M. Herbert,  A. I. Krylov,  
 P. M. W. Gill,  M. Head-Gordon

 Contributors to earlier versions of Q-Chem not listed above: 
 R. D. Adamson,  B. Austin,  J. Baker,  G. J. O. Beran,  K. Brandhorst,  
 S. T. Brown,  E. F. C. Byrd,  A. K. Chakraborty,  C.-L. Cheng,  
 Siu Hung Chien,  D. M. Chipman,  D. L. Crittenden,  H. Dachsel,  
 R. J. Doerksen,  A. D. Dutoi,  L. Fusti-Molnar,  W. A. Goddard III,  
 A. Golubeva-Zadorozhnaya,  S. R. Gwaltney,  G. Hawkins,  A. Heyden,  
 S. Hirata,  G. Kedziora,  F. J. Keil,  C. Kelley,  Jihan Kim,  R. A. King,  
 R. Z. Khaliullin,  P. P. Korambath,  W. Kurlancheek,  A. M. Lee,  M. S. Lee,  
 S. V. Levchenko,  Ching Yeh Lin,  D. Liotard,  R. C. Lochan,  I. Lotan,  
 P. E. Maslen,  N. Nair,  D. P. O'Neill,  D. Neuhauser,  E. Neuscamman,  
 C. M. Oana,  R. Olson,  B. Peters,  R. Peverati,  P. A. Pieniazek,  
 Y. M. Rhee,  J. Ritchie,  M. A. Rohrdanz,  E. Rosta,  N. J. Russ,  
 H. F. Schaefer III,  N. E. Schultz,  N. Shenvi,  A. C. Simmonett,  A. Sodt,  
 D. Stuck,  K. S. Thanthiriwatte,  V. Vanovschi,  Tao Wang,  A. Warshel,  
 C. F. Williams,  Q. Wu,  X. Xu,  W. Zhang

 Please cite Q-Chem as follows:
 Y. Shao et al., Mol. Phys. 113, 184-215 (2015)
 DOI: 10.1080/00268976.2014.952696

 Q-Chem 5.2.1 for Intel X86 EM64T Linux

 Parts of Q-Chem use Armadillo 8.300.2 (Tropical Shenanigans).
 http://arma.sourceforge.net/

 Q-Chem begins on Tue Feb  8 14:43:00 2022  

Host: 
0

     Scratch files written to /gpfs/fs0/scratch/a/aspuru/rhickman/descriptor_computation/qchem326573//
 Jul1719 |scratch|qcdevops|jenkins|workspace|build_RNUM -1
Processing $rem in /scinet/niagara/software/commercial/qc52/config/preferences:
	 MEM_TOTAL  4000 
NAlpha2: 92
NElect   92
Mult     1

Checking the input file for inconsistencies... 	...done.

--------------------------------------------------------------
User input:
--------------------------------------------------------------
$molecule
0 1
C        -4.43364798620000    0.14308388270000   -0.01830801050000
C        -3.24705038530000    0.72732533810000   -0.13722921350000
C        -1.94570314550000    0.08307090040000   -0.02145199450000
C        -1.78223917870000   -1.28716693210000    0.19745435950000
C        -0.52483934140000   -1.84437956510000    0.27649044770000
C         0.63020823610000   -1.07006951760000    0.15015681100000
C         1.92660525190000   -1.74647292710000    0.12577564120000
C         2.95954469940000   -1.37877984230000   -0.62255465610000
C         0.47466533000000    0.31434716860000   -0.01956863860000
C         1.61284240880000    1.28213038680000   -0.03369203460000
O         1.69496243570000    2.19510959400000   -0.80657289190000
O         2.52397881020000    1.12675138910000    0.94954456510000
C        -0.79544042930000    0.86347152830000   -0.12540509470000
H        -5.34498830010000    0.70627763130000   -0.12133071320000
H        -4.55178780680000   -0.90743568810000    0.18520369640000
H        -3.20234479370000    1.79004872210000   -0.33992003380000
H        -2.64645788310000   -1.92520544920000    0.29472627060000
H        -0.42146714850000   -2.91092219610000    0.41760077630000
H         1.98302886250000   -2.65401795950000    0.71513390610000
H         2.92381549840000   -0.51377704620000   -1.26429141310000
H         3.87758336140000   -1.94061769740000   -0.63025369780000
H         2.36277204070000    0.33035190740000    1.47289881600000
H        -0.87706670810000    1.92999087690000   -0.27829497470000
$end

$rem
BASIS = 6-31G*
GUI = 2
METHOD = B3LYP
PRINT_ORBITALS false
MOLDEN_FORMAT false
--------------------------------------------------------------
 ----------------------------------------------------------------
             Standard Nuclear Orientation (Angstroms)
    I     Atom           X                Y                Z
 ----------------------------------------------------------------
    1      C       4.4024777261     0.1681749071     0.0183261123
    2      C       3.2168557520     0.7623558567     0.0872008594
    3      C       1.9144087325     0.1134770296     0.0196670712
    4      C       1.7485238816    -1.2695207396    -0.0898389310
    5      C       0.4901212908    -1.8287940503    -0.1275649962
    6      C      -0.6635580377    -1.0446201706    -0.0663565231
    7      C      -1.9614716435    -1.7143914536     0.0083959794
    8      C      -2.9954640784    -1.2862372516     0.7223315258
    9      C      -0.5054416885     0.3486094963    -0.0070252466
   10      C      -1.6415540897     1.3166705406    -0.0730352209
   11      O      -1.7236135053     2.2884701276     0.6244541096
   12      O      -2.5505857359     1.0852529303    -1.0431763146
   13      C       0.7655828618     0.9019300809     0.0580937288
   14      H       5.3147761773     0.7359988484     0.0785718683
   15      H       4.5188486153    -0.8954465013    -0.1005549894
   16      H       3.1739471276     1.8379330359     0.2044856883
   17      H       2.6115986933    -1.9149717504    -0.1337001330
   18      H       0.3847921057    -2.9029831932    -0.1835521983
   19      H      -2.0183980334    -2.6658846531    -0.5069532727
   20      H      -2.9594537801    -0.3729384036     1.2932263945
   21      H      -3.9147322188    -1.8438771945     0.7723296840
   22      H      -2.3898060156     0.2493829863    -1.5010089775
   23      H       0.8491370165     1.9770768896     0.1257674223
 ----------------------------------------------------------------
 Molecular Point Group                 C1    NOp =  1
 Largest Abelian Subgroup              C1    NOp =  1
 Nuclear Repulsion Energy =         731.21282559 hartrees
 There are       46 alpha and       46 beta electrons
 Requested basis set is 6-31G(d)
 There are 72 shells and 215 basis functions

 Total QAlloc Memory Limit   4000 MB
 Mega-Array Size       188 MB
 MEM_STATIC part       192 MB
 A cutoff of  1.0D-08 yielded   1809 shell pairs
 There are     17571 function pairs
 Smallest overlap matrix eigenvalue = 3.41E-04

 Scale SEOQF with 1.000000e-02/1.000000e-01/1.000000e+00

 Standard Electronic Orientation quadrupole field applied
 Nucleus-field energy     =    -0.0000000079 hartrees
 Guess from superposition of atomic densities
 Warning:  Energy on first SCF cycle will be non-variational
 SAD guess density has 92.000000 electrons

 -----------------------------------------------------------------------
  General SCF calculation program by
  Eric Jon Sundstrom, Paul Horn, Yuezhi Mao, Dmitri Zuev, Alec White,
  David Stuck, Shaama M.S., Shane Yost, Joonho Lee, David Small,
  Daniel Levine, Susi Lehtola, Hugh Burton, Evgeny Epifanovsky,
  Bang C. Huynh
 -----------------------------------------------------------------------
 Exchange:     0.2000 Hartree-Fock + 0.0800 Slater + 0.7200 B88
 Correlation:  0.1900 VWN1RPA + 0.8100 LYP
 Using SG-1 standard quadrature grid
 A restricted SCF calculation will be
 performed using DIIS
 SCF converges when DIIS error is below 1.0e-05
 ---------------------------------------
  Cycle       Energy         DIIS error
 ---------------------------------------
    1    -578.5844442503      5.57e-02  
    2    -575.3578261193      6.75e-03  
    3    -575.1102825986      1.03e-02  
    4    -575.5636332944      2.72e-03  
    5    -575.5998102421      5.38e-04  
    6    -575.6007677510      2.72e-04  
    7    -575.6011141686      5.29e-05  
    8    -575.6011263005      2.65e-05  
    9    -575.6011304431      6.16e-06  Convergence criterion met
 ---------------------------------------
 SCF time:   CPU 31.81s  wall 32.00s 
 SCF   energy in the final basis set =     -575.6011304431
 Total energy in the final basis set =     -575.6011304431
 
 --------------------------------------------------------------
 
                    Orbital Energies (a.u.)
 --------------------------------------------------------------
 
 Alpha MOs
 -- Occupied --
-19.1876 -19.1305 -10.3166 -10.2173 -10.2124 -10.2097 -10.2076 -10.2048
-10.2038 -10.2032 -10.1997 -10.1983 -10.1901  -1.0990  -1.0179  -0.8859
 -0.8254  -0.7833  -0.7741  -0.7325  -0.6655  -0.6335  -0.6148  -0.5903
 -0.5886  -0.5221  -0.5101  -0.4985  -0.4696  -0.4595  -0.4458  -0.4428
 -0.4342  -0.4185  -0.4047  -0.3982  -0.3895  -0.3693  -0.3622  -0.3520
 -0.3304  -0.3113  -0.2849  -0.2780  -0.2598  -0.2282
 -- Virtual --
 -0.0623  -0.0273   0.0042   0.0269   0.0712   0.0931   0.0935   0.1060
  0.1152   0.1322   0.1406   0.1644   0.1740   0.1875   0.1972   0.2175
  0.2460   0.2567   0.2898   0.3022   0.3110   0.3301   0.3509   0.3530
  0.3908   0.4121   0.4353   0.4758   0.4914   0.4995   0.5174   0.5296
  0.5330   0.5438   0.5463   0.5558   0.5684   0.5920   0.5949   0.6027
  0.6092   0.6149   0.6243   0.6372   0.6442   0.6615   0.6762   0.6827
  0.6937   0.7091   0.7538   0.7652   0.7778   0.7978   0.8059   0.8214
  0.8331   0.8480   0.8582   0.8680   0.8721   0.8835   0.8900   0.9325
  0.9380   0.9601   0.9648   0.9755   1.0036   1.0171   1.0262   1.0445
  1.0554   1.0884   1.0984   1.1005   1.1139   1.1354   1.1610   1.1724
  1.1962   1.2345   1.2589   1.2993   1.3103   1.3266   1.3649   1.4072
  1.4138   1.4462   1.4539   1.4660   1.4890   1.4931   1.5064   1.5265
  1.5823   1.5858   1.6506   1.6673   1.6943   1.7205   1.7622   1.7676
  1.7998   1.8049   1.8351   1.8433   1.8625   1.8862   1.9022   1.9185
  1.9550   1.9652   1.9930   1.9953   2.0150   2.0230   2.0410   2.0755
  2.1183   2.1373   2.1483   2.1592   2.2109   2.2261   2.2447   2.2650
  2.2922   2.3090   2.3326   2.3759   2.3818   2.4206   2.4817   2.4916
  2.5239   2.5746   2.5885   2.6063   2.6340   2.6622   2.6834   2.6973
  2.7398   2.7583   2.7929   2.8593   2.9010   2.9294   2.9444   3.0102
  3.0942   3.1125   3.2515   3.4563   3.9053   4.0786   4.0959   4.1081
  4.1328   4.1538   4.1937   4.2295   4.3099   4.3601   4.4310   4.5310
  4.7871
 --------------------------------------------------------------
 
          Ground-State Mulliken Net Atomic Charges

     Atom                 Charge (a.u.)
  ----------------------------------------
      1 C                    -0.351337
      2 C                    -0.110300
      3 C                     0.178481
      4 C                    -0.170903
      5 C                    -0.192916
      6 C                     0.124504
      7 C                    -0.188221
      8 C                    -0.323096
      9 C                     0.006484
     10 C                     0.510798
     11 O                    -0.444002
     12 O                    -0.561213
     13 C                    -0.237202
     14 H                     0.151250
     15 H                     0.144902
     16 H                     0.137461
     17 H                     0.135263
     18 H                     0.136245
     19 H                     0.141628
     20 H                     0.179947
     21 H                     0.156358
     22 H                     0.414264
     23 H                     0.161601
  ----------------------------------------
  Sum of atomic charges =     0.000000

 -----------------------------------------------------------------
                    Cartesian Multipole Moments
 -----------------------------------------------------------------
    Charge (ESU x 10^10)
                 0.0000
    Dipole Moment (Debye)
         X       1.7981      Y      -3.9132      Z      -1.3935
       Tot       4.5264
    Quadrupole Moments (Debye-Ang)
        XX     -69.9502     XY       9.6145     YY     -76.1937
        XZ       1.2733     YZ       0.0272     ZZ     -76.6195
    Octopole Moments (Debye-Ang^2)
       XXX       9.0531    XXY     -21.6619    XYY      17.1715
       YYY     -14.9172    XXZ       2.3392    XYZ       1.0681
       YYZ      -8.1582    XZZ     -16.1799    YZZ       2.7901
       ZZZ      -6.9425
    Hexadecapole Moments (Debye-Ang^3)
      XXXX   -2276.4376   XXXY      55.6111   XXYY    -542.0234
      XYYY      27.7306   YYYY    -839.4003   XXXZ     -13.5965
      XXYZ       8.9146   XYYZ      11.6930   YYYZ      -1.9708
      XXZZ    -452.4233   XYZZ      -3.7041   YYZZ    -180.6298
      XZZZ      17.2338   YZZZ       3.3052   ZZZZ    -153.2797
 -----------------------------------------------------------------
Archival summary:
1\1\nia2015.scinet.local\SP\ProcedureUnspecified\6-31G*\21110\rhickman\TueFeb814:43:322022TueFeb814:43:322022\0\\#,ProcedureUnspecified,6-31G*,\\0,1\C\C,1,1.38777\H,2,1.08051,1,118.066\C,2,1.39389,1,121.872,3,-179.099,0\C,4,1.39721,2,117.659,1,0.0944252,0\H,5,1.07862,4,120.033,2,179.333,0\C,5,1.3776,4,120.827,2,-1.42714,0\H,7,1.08079,5,119.6,4,-178.225,0\C,7,1.3963,5,121.705,4,0.372628,0\C,4,1.4567,2,118.925,1,179.759,0\H,10,1.0828,4,114.334,2,2.34714,0\C,10,1.32797,4,126.624,2,-177.585,0\H,12,1.07626,10,121.187,4,-179.971,0\H,12,1.07655,10,122.977,4,0.0960831,0\C,9,1.46245,7,118.576,5,-174.63,0\H,15,1.08359,9,115.117,7,-32.0964,0\C,15,1.32746,9,124.824,7,142.921,0\H,17,1.07634,15,121.543,9,-177.372,0\H,17,1.07765,15,122.156,9,1.762,0\C,1,1.49407,2,116.115,3,4.14013,0\O,20,1.19901,1,123.47,2,-44.9035,0\O,20,1.34947,1,115.65,2,130.765,0\H,22,0.966509,20,112.135,1,6.86207,0\\\@

 Total job time:  32.09s(wall), 31.98s(cpu) 
 Tue Feb  8 14:43:32 2022

        *************************************************************
        *                                                           *
        *  Thank you very much for using Q-Chem.  Have a nice day.  *
        *                                                           *
        *************************************************************


