24
 energy: -42.121382225417 gnorm: 0.000029394845 xtb: 6.5.0 (unknown)
C           -4.02479059870000       -2.24102186040000        0.02196351430000
C           -2.70668070270000       -2.08968619540000       -0.02937555080000
C           -1.97582181730000       -0.83006601160000       -0.07527789150000
C           -2.59684515290000        0.42079437620000       -0.03831465390000
C           -1.84715846060000        1.57383856160000       -0.06179409590000
C           -0.45442366860000        1.53817228550000       -0.13911142230000
O            0.15725730480000        2.75827857450000       -0.14008971810000
C            1.38749273380000        2.94171535820000        0.53186797270000
C            0.18911203250000        0.29328081130000       -0.22997435640000
C            1.63046778920000        0.18804138330000       -0.46290090390000
C            2.42356315120000       -0.76949112310000       -0.01275823020000
F            2.09589445140000       -1.77296428460000        0.79452308570000
F            3.72390911350000       -0.84444346900000       -0.29638052150000
C           -0.58880692290000       -0.86105736790000       -0.17700873500000
H           -4.47309475760000       -3.21899671510000        0.05440094870000
H           -4.70884216270000       -1.41006664000000        0.03289838640000
H           -2.07842793600000       -2.97188451250000       -0.03963883260000
H           -3.67071774440000        0.49269680800000        0.02441428380000
H           -2.31925083690000        2.54295843320000       -0.01600674370000
H            1.30567572670000        3.88440834120000        1.07767488890000
H            2.21484363580000        3.02368223490000       -0.17810590950000
H            1.59017104120000        2.13638616340000        1.23968904090000
H            2.09349274570000        0.93085335690000       -1.09378378020000
H           -0.09580462680000       -1.81870409810000       -0.25120841280000
