26
 energy: -49.805411088478 gnorm: 0.000144601119 xtb: 6.4.1 (23d549d)
C         3.24504806410000   -2.98412790370000    0.43218611420000
C         3.19588503200000   -1.80058425280000   -0.16359468890000
C         2.05630297070000   -0.88478839510000   -0.11404032170000
C         0.76628618430000   -1.39555775240000   -0.07594568310000
C        -0.32616913760000   -0.54725557680000   -0.06748395130000
O        -1.58692859900000   -1.19625469080000   -0.03547916910000
C        -2.68829864010000   -0.49256776870000    0.03181705340000
F        -2.77134187500000    0.32695097350000    1.09916151230000
F        -2.91849209000000    0.29903828460000   -1.03636140000000
F        -3.72885585630000   -1.31971105840000    0.11211479330000
C        -0.15959200300000    0.82078797500000   -0.11666176870000
C         1.12251765310000    1.36443519320000   -0.14996125970000
C         1.27731333900000    2.81654555900000   -0.23274829400000
C         0.46960722540000    3.69985366740000    0.33818529340000
C         2.24622659340000    0.51450363430000   -0.12964258560000
N         3.50551171390000    1.03962918130000   -0.00905644140000
H         4.10245324000000   -3.62814426860000    0.33926258420000
H         2.43977979530000   -3.34521385910000    1.04837138940000
H         4.04718571530000   -1.47571531650000   -0.75159276710000
H         0.59946242990000   -2.45936724020000   -0.07858817410000
H        -0.99891033300000    1.49512496250000   -0.15460408570000
H         2.11117995600000    3.17686896450000   -0.82522251260000
H        -0.35829690550000    3.39993100530000    0.95746128140000
H         0.61806839560000    4.75929847170000    0.21977639930000
H         3.63295138850000    2.01472782290000   -0.21546736720000
H         4.28882046190000    0.43795454040000   -0.19332985040000
