
Running Job 1 of 1 fragments/C081/conf-3/spe_input.inp
qchem fragments/C081/conf-3/spe_input.inp_227631.0 /gpfs/fs0/scratch/a/aspuru/rhickman/descriptor_computation/qchem227631/ 0
/scinet/niagara/software/commercial/qc52/exe/qcprog.exe_s fragments/C081/conf-3/spe_input.inp_227631.0 /gpfs/fs0/scratch/a/aspuru/rhickman/descriptor_computation/qchem227631/
                  Welcome to Q-Chem
     A Quantum Leap Into The Future Of Chemistry


 Q-Chem 5.2, Q-Chem, Inc., Pleasanton, CA (2019)

 License issued to: SRG Alan Aspuru-Guzik, University of Toronto

 Yihan Shao,  Zhengting Gan,  E. Epifanovsky,  A. T. B. Gilbert,  M. Wormit,  
 J. Kussmann,  A. W. Lange,  A. Behn,  Jia Deng,  Xintian Feng,  D. Ghosh,  
 M. Goldey,  P. R. Horn,  L. D. Jacobson,  I. Kaliman,  T. Kus,  A. Landau,  
 Jie Liu,  E. I. Proynov,  R. M. Richard,  R. P. Steele,  E. J. Sundstrom,  
 H. L. Woodcock III,  P. M. Zimmerman,  D. Zuev,  B. Albrecht,  E. Alguire,  
 S. A. Baeppler,  D. Barton,  Z. Benda,  Y. A. Bernard,  E. J. Berquist,  
 K. B. Bravaya,  H. Burton,  D. Casanova,  Chun-Min Chang,  Yunqing Chen,  
 A. Chien,  K. D. Closser,  M. P. Coons,  S. Coriani,  S. Dasgupta,  
 A. L. Dempwolff,  M. Diedenhofen,  Hainam Do,  R. G. Edgar,  Po-Tung Fang,  
 S. Faraji,  S. Fatehi,  Qingguo Feng,  K. D. Fenk,  J. Fosso-Tande,  
 J. Gayvert,  Qinghui Ge,  A. Ghysels,  G. Gidofalvi,  J. Gomes,  
 J. Gonthier,  A. Gunina,  D. Hait,  M. W. D. Hanson-Heine,  
 P. H. P. Harbach,  A. W. Hauser,  M. F. Herbst,  J. E. Herr,  
 E. G. Hohenstein,  Z. C. Holden,  Kerwin Hui,  B. C. Huynh,  T.-C. Jagau,  
 Hyunjun Ji,  B. Kaduk,  K. Khistyaev,  Jaehoon Kim,  P. Klunzinger,  K. Koh,  
 D. Kosenkov,  L. Koulias,  T. Kowalczyk,  C. M. Krauter,  A. Kunitsa,  
 Ka Un Lao,  A. Laurent,  K. V. Lawler,  Joonho Lee,  D. Lefrancois,  
 S. Lehtola,  D. S. Levine,  Yi-Pei Li,  You-Sheng Lin,  Fenglai Liu,  
 E. Livshits,  A. Luenser,  P. Manohar,  E. Mansoor,  S. F. Manzer,  
 Shan-Ping Mao,  Yuezhi Mao,  N. Mardirossian,  A. V. Marenich,  
 T. Markovich,  L. A. Martinez-Martinez,  S. A. Maurer,  N. J. Mayhall,  
 S. C. McKenzie,  J.-M. Mewes,  P. Morgante,  A. F. Morrison,  
 J. W. Mullinax,  K. Nanda,  T. S. Nguyen-Beck,  R. Olivares-Amaya,  
 J. A. Parkhill,  Zheng Pei,  T. M. Perrine,  F. Plasser,  P. Pokhilko,  
 S. Prager,  A. Prociuk,  E. Ramos,  D. R. Rehn,  F. Rob,  M. Scheurer,  
 M. Schneider,  N. Sergueev,  S. M. Sharada,  S. Sharma,  D. W. Small,  
 T. Stauch,  T. Stein,  Yu-Chuan Su,  A. J. W. Thom,  A. Tkatchenko,  
 T. Tsuchimochi,  N. M. Tubman,  L. Vogt,  M. L. Vidal,  O. Vydrov,  
 M. A. Watson,  J. Wenzel,  M. de Wergifosse,  T. A. Wesolowski,  A. White,  
 J. Witte,  A. Yamada,  Jun Yang,  K. Yao,  S. Yeganeh,  S. R. Yost,  
 Zhi-Qiang You,  A. Zech,  Igor Ying Zhang,  Xing Zhang,  Yan Zhao,  
 Ying Zhu,  B. R. Brooks,  G. K. L. Chan,  C. J. Cramer,  M. S. Gordon,  
 W. J. Hehre,  A. Klamt,  M. W. Schmidt,  C. D. Sherrill,  D. G. Truhlar,  
 A. Aspuru-Guzik,  R. Baer,  A. T. Bell,  N. A. Besley,  Jeng-Da Chai,  
 A. E. DePrince, III,  R. A. DiStasio Jr.,  A. Dreuw,  B. D. Dunietz,  
 T. R. Furlani,  Chao-Ping Hsu,  Yousung Jung,  Jing Kong,  D. S. Lambrecht,  
 WanZhen Liang,  C. Ochsenfeld,  V. A. Rassolov,  L. V. Slipchenko,  
 J. E. Subotnik,  T. Van Voorhis,  J. M. Herbert,  A. I. Krylov,  
 P. M. W. Gill,  M. Head-Gordon

 Contributors to earlier versions of Q-Chem not listed above: 
 R. D. Adamson,  B. Austin,  J. Baker,  G. J. O. Beran,  K. Brandhorst,  
 S. T. Brown,  E. F. C. Byrd,  A. K. Chakraborty,  C.-L. Cheng,  
 Siu Hung Chien,  D. M. Chipman,  D. L. Crittenden,  H. Dachsel,  
 R. J. Doerksen,  A. D. Dutoi,  L. Fusti-Molnar,  W. A. Goddard III,  
 A. Golubeva-Zadorozhnaya,  S. R. Gwaltney,  G. Hawkins,  A. Heyden,  
 S. Hirata,  G. Kedziora,  F. J. Keil,  C. Kelley,  Jihan Kim,  R. A. King,  
 R. Z. Khaliullin,  P. P. Korambath,  W. Kurlancheek,  A. M. Lee,  M. S. Lee,  
 S. V. Levchenko,  Ching Yeh Lin,  D. Liotard,  R. C. Lochan,  I. Lotan,  
 P. E. Maslen,  N. Nair,  D. P. O'Neill,  D. Neuhauser,  E. Neuscamman,  
 C. M. Oana,  R. Olson,  B. Peters,  R. Peverati,  P. A. Pieniazek,  
 Y. M. Rhee,  J. Ritchie,  M. A. Rohrdanz,  E. Rosta,  N. J. Russ,  
 H. F. Schaefer III,  N. E. Schultz,  N. Shenvi,  A. C. Simmonett,  A. Sodt,  
 D. Stuck,  K. S. Thanthiriwatte,  V. Vanovschi,  Tao Wang,  A. Warshel,  
 C. F. Williams,  Q. Wu,  X. Xu,  W. Zhang

 Please cite Q-Chem as follows:
 Y. Shao et al., Mol. Phys. 113, 184-215 (2015)
 DOI: 10.1080/00268976.2014.952696

 Q-Chem 5.2.1 for Intel X86 EM64T Linux

 Parts of Q-Chem use Armadillo 8.300.2 (Tropical Shenanigans).
 http://arma.sourceforge.net/

 Q-Chem begins on Fri Feb  4 12:32:27 2022  

Host: 
0

     Scratch files written to /gpfs/fs0/scratch/a/aspuru/rhickman/descriptor_computation/qchem227631//
 Jul1719 |scratch|qcdevops|jenkins|workspace|build_RNUM -1
Processing $rem in /scinet/niagara/software/commercial/qc52/config/preferences:
	 MEM_TOTAL  4000 
NAlpha2: 168
NElect   168
Mult     1

Checking the input file for inconsistencies... 	...done.

--------------------------------------------------------------
User input:
--------------------------------------------------------------
$molecule
0 1
C         4.09110455410000   -0.05914873100000   -1.40533065850000
C         2.83622481650000    0.36413703960000   -1.53275598440000
C         1.72339669510000   -0.11872186050000   -0.76072393600000
S         1.93531838900000   -1.45448052530000    0.33153848430000
C         0.25893135570000   -1.40821767190000    0.79156001420000
C        -0.24241098560000   -2.33229394140000    1.77294685740000
C         0.45976148650000   -3.32757236520000    2.30840830090000
C        -0.41553450290000   -0.40923599820000    0.12319660360000
C        -1.88961899990000   -0.16564375130000    0.24435354530000
C        -2.67560665040000   -0.88102601510000   -0.86767501060000
C        -2.71242115980000   -2.40161680100000   -0.71070121360000
C        -3.69651428860000   -2.89155823140000    0.35364043210000
C        -5.15141028970000   -2.84234171920000   -0.10889465470000
C        -6.10143144720000   -3.34896486470000    0.96952727320000
C         0.42011527340000    0.32902825830000   -0.75591357950000
C        -0.05549570080000    1.51972276230000   -1.53276856830000
C        -0.00699676420000    2.80534813380000   -0.69178008430000
C         1.41534185720000    3.23638189330000   -0.34778426820000
C         1.43222714780000    4.51427895160000    0.48782276100000
C         2.83169730470000    4.89723107390000    0.96966323860000
C         3.77682916760000    5.27334378350000   -0.16555306170000
H         4.88448284810000    0.33428182220000   -2.01588664120000
H         4.36141213610000   -0.81202740710000   -0.68356062130000
H         2.60232673900000    1.12678427470000   -2.26298735480000
H        -1.26809207700000   -2.18087575570000    2.07895540610000
H         1.48198083560000   -3.51386004820000    2.02333095740000
H         0.03375581020000   -3.98571010840000    3.04479446250000
H        -2.08536007420000    0.90555871800000    0.17515429340000
H        -2.24859736550000   -0.49932332680000    1.21767860530000
H        -2.21638811680000   -0.64149963890000   -1.82933530710000
H        -3.69465636640000   -0.49034663190000   -0.88284527660000
H        -1.70813509140000   -2.75287634310000   -0.46548422990000
H        -2.98840139640000   -2.84953110640000   -1.66836403110000
H        -3.59390195280000   -2.29364359490000    1.26130181290000
H        -3.44833839080000   -3.92348315220000    0.61323240040000
H        -5.26338616220000   -3.45425414190000   -1.00705159340000
H        -5.42300866560000   -1.81796423030000   -0.37140923070000
H        -5.86437850230000   -4.37736311860000    1.23405723740000
H        -7.13136218210000   -3.31288506920000    0.62185993120000
H        -6.02124573360000   -2.73887027670000    1.86700004200000
H        -1.08276375680000    1.35416203470000   -1.86069173220000
H         0.55571739210000    1.65573683820000   -2.42608367470000
H        -0.56656565910000    2.65341514070000    0.23424776900000
H        -0.49943682490000    3.60547370100000   -1.25036899180000
H         1.97158166630000    3.39787740450000   -1.27233667190000
H         1.91258095020000    2.43870050800000    0.20797905970000
H         0.79001053550000    4.37219525940000    1.36102132490000
H         1.01433612750000    5.33706192730000   -0.09787260200000
H         3.25734130850000    4.06354418310000    1.53279401380000
H         2.74367941720000    5.74642269700000    1.65185128210000
H         3.98320190230000    4.41601789150000   -0.80081773170000
H         4.72259850090000    5.63175952050000    0.23468845030000
H         3.34298172480000    6.06201757840000   -0.77691952110000
$end

$rem
BASIS = 6-31G*
GUI = 2
METHOD = B3LYP
PRINT_ORBITALS false
MOLDEN_FORMAT false
--------------------------------------------------------------
 ----------------------------------------------------------------
             Standard Nuclear Orientation (Angstroms)
    I     Atom           X                Y                Z
 ----------------------------------------------------------------
    1      C      -3.0241288406     2.7996735151    -1.4702712372
    2      C      -2.4222044285     1.6143195298    -1.5227511839
    3      C      -1.2279507012     1.2661542187    -0.8015635662
    4      S      -0.3747509856     2.4779411703     0.1071838350
    5      C       0.8362832044     1.3295016805     0.5955653190
    6      C       1.9106622730     1.7416131349     1.4582674677
    7      C       2.1328239142     2.9933790631     1.8507856776
    8      C       0.5812950323     0.0806218664     0.0712958565
    9      C       1.4842747456    -1.1030742922     0.2457445108
   10      C       2.4571705457    -1.2528750830    -0.9362831389
   11      C       3.5442970435    -0.1782279204    -0.9747782406
   12      C       4.6734292403    -0.4019277863     0.0333506610
   13      C       5.6512813397    -1.4938839568    -0.3962076459
   14      C       6.7684727350    -1.6806062833     0.6232133784
   15      C      -0.5977696237     0.0434096209    -0.7190212703
   16      C      -1.1365665388    -1.2153787590    -1.3294412676
   17      C      -1.9926016554    -2.0115953508    -0.3315988998
   18      C      -3.2873395296    -1.2968011277     0.0424244057
   19      C      -4.1156982480    -2.1099921282     1.0344361709
   20      C      -5.3501115683    -1.3625818763     1.5393529601
   21      C      -6.3782076019    -1.0920633704     0.4469751222
   22      H      -3.9141394227     3.0066362287    -2.0377771177
   23      H      -2.6436333877     3.5982603736    -0.8551885468
   24      H      -2.8363116259     0.8331531049    -2.1455442601
   25      H       2.5686437752     0.9537153345     1.7971889908
   26      H       1.5030027943     3.8058901823     1.5282091311
   27      H       2.9505640710     3.2429219942     2.5034111948
   28      H       0.8812803055    -2.0096307157     0.3173754470
   29      H       2.0484381007    -1.0139268719     1.1738294448
   30      H       1.8866449294    -1.2041665885    -1.8664299424
   31      H       2.9204672239    -2.2398308513    -0.8853190285
   32      H       3.0823177416     0.7940868755    -0.7923386494
   33      H       3.9774966845    -0.1490231233    -1.9774723809
   34      H       4.2577699657    -0.6634774929     1.0083888678
   35      H       5.2263684348     0.5326169209     0.1547291840
   36      H       6.0840728959    -1.2278713252    -1.3634666827
   37      H       5.1201861198    -2.4395967321    -0.5210837217
   38      H       7.3273737314    -0.7557825618     0.7501146379
   39      H       7.4582750527    -2.4565776920     0.2992183376
   40      H       6.3597742846    -1.9674453067     1.5900595280
   41      H      -0.3081201841    -1.8437217662    -1.6597219323
   42      H      -1.7398693241    -0.9804021353    -2.2074531632
   43      H      -1.4129728256    -2.1960292062     0.5760040642
   44      H      -2.2330377183    -2.9811373511    -0.7753313796
   45      H      -3.8710496386    -1.1213415395    -0.8624386304
   46      H      -3.0522640251    -0.3259637440     0.4835927029
   47      H      -3.4874463859    -2.3642205768     1.8922083891
   48      H      -4.4275458916    -3.0467668615     0.5655567254
   49      H      -5.0380812825    -0.4149807369     1.9843384667
   50      H      -5.8192551416    -1.9587288388     2.3259705258
   51      H      -5.9850417690    -0.4031840446    -0.2960083864
   52      H      -7.2753193051    -0.6502863829     0.8749452445
   53      H      -6.6570404389    -2.0182354635    -0.0514788967
 ----------------------------------------------------------------
 Molecular Point Group                 C1    NOp =  1
 Largest Abelian Subgroup              C1    NOp =  1
 Nuclear Repulsion Energy =        1835.39083449 hartrees
 There are       84 alpha and       84 beta electrons
 Requested basis set is 6-31G(d)
 There are 149 shells and 383 basis functions

 Total QAlloc Memory Limit   4000 MB
 Mega-Array Size       188 MB
 MEM_STATIC part       192 MB
 A cutoff of  1.0D-08 yielded   5283 shell pairs
 There are     37881 function pairs
 Smallest overlap matrix eigenvalue = 5.59E-04

 Scale SEOQF with 1.000000e-02/1.000000e-01/1.000000e-01

 Standard Electronic Orientation quadrupole field applied
 Nucleus-field energy     =     0.0000000249 hartrees
 Guess from superposition of atomic densities
 Warning:  Energy on first SCF cycle will be non-variational
 SAD guess density has 168.000000 electrons

 -----------------------------------------------------------------------
  General SCF calculation program by
  Eric Jon Sundstrom, Paul Horn, Yuezhi Mao, Dmitri Zuev, Alec White,
  David Stuck, Shaama M.S., Shane Yost, Joonho Lee, David Small,
  Daniel Levine, Susi Lehtola, Hugh Burton, Evgeny Epifanovsky,
  Bang C. Huynh
 -----------------------------------------------------------------------
 Exchange:     0.2000 Hartree-Fock + 0.0800 Slater + 0.7200 B88
 Correlation:  0.1900 VWN1RPA + 0.8100 LYP
 Using SG-1 standard quadrature grid
 A restricted SCF calculation will be
 performed using DIIS
 SCF converges when DIIS error is below 1.0e-05
 ---------------------------------------
  Cycle       Energy         DIIS error
 ---------------------------------------
    1   -1183.8358207667      4.02e-02  
    2   -1179.1196502880      4.67e-03  
    3   -1179.0014561135      5.27e-03  
    4   -1179.5451202537      9.23e-04  
    5   -1179.5592962354      4.48e-04  
    6   -1179.5631813022      1.04e-04  
    7   -1179.5633691829      4.49e-05  
    8   -1179.5634068379      1.33e-05  
    9   -1179.5634100797      1.48e-06  Convergence criterion met
 ---------------------------------------
 SCF time:   CPU 138.71s  wall 139.00s 
 SCF   energy in the final basis set =    -1179.5634100797
 Total energy in the final basis set =    -1179.5634100797
 
 --------------------------------------------------------------
 
                    Orbital Energies (a.u.)
 --------------------------------------------------------------
 
 Alpha MOs
 -- Occupied --
-88.8916 -10.2100 -10.2097 -10.1936 -10.1935 -10.1893 -10.1887 -10.1862
-10.1862 -10.1791 -10.1787 -10.1778 -10.1777 -10.1745 -10.1729 -10.1715
-10.1707 -10.1700 -10.1697 -10.1679 -10.1650  -7.9538  -5.9179  -5.9143
 -5.9103  -0.8884  -0.8160  -0.8135  -0.7998  -0.7881  -0.7707  -0.7637
 -0.7343  -0.7219  -0.6890  -0.6872  -0.6453  -0.6411  -0.6232  -0.5992
 -0.5900  -0.5668  -0.5629  -0.5568  -0.5247  -0.5181  -0.4938  -0.4764
 -0.4673  -0.4635  -0.4540  -0.4401  -0.4392  -0.4324  -0.4280  -0.4233
 -0.4225  -0.4145  -0.4001  -0.3967  -0.3925  -0.3891  -0.3807  -0.3754
 -0.3729  -0.3611  -0.3579  -0.3570  -0.3487  -0.3461  -0.3404  -0.3347
 -0.3319  -0.3241  -0.3193  -0.3172  -0.3155  -0.3130  -0.3112  -0.3038
 -0.3034  -0.2630  -0.2340  -0.1928
 -- Virtual --
 -0.0489   0.0162   0.0411   0.0759   0.0816   0.0855   0.0921   0.0972
  0.1023   0.1068   0.1113   0.1213   0.1255   0.1298   0.1382   0.1452
  0.1482   0.1517   0.1584   0.1608   0.1659   0.1713   0.1751   0.1777
  0.1814   0.1841   0.1884   0.1922   0.1943   0.1975   0.1982   0.2038
  0.2100   0.2133   0.2193   0.2209   0.2288   0.2370   0.2426   0.2453
  0.2552   0.2609   0.2639   0.2656   0.2791   0.2819   0.2882   0.2994
  0.3010   0.3073   0.3116   0.3308   0.3431   0.3463   0.3552   0.3704
  0.3758   0.4268   0.4731   0.4806   0.4871   0.4939   0.4969   0.5042
  0.5099   0.5144   0.5215   0.5266   0.5378   0.5409   0.5473   0.5503
  0.5558   0.5574   0.5632   0.5656   0.5764   0.5873   0.5911   0.6047
  0.6105   0.6193   0.6247   0.6328   0.6424   0.6497   0.6580   0.6667
  0.6717   0.6803   0.6820   0.6849   0.6907   0.6943   0.6999   0.7095
  0.7164   0.7349   0.7457   0.7676   0.7724   0.7812   0.7950   0.8116
  0.8129   0.8217   0.8324   0.8352   0.8406   0.8514   0.8549   0.8575
  0.8594   0.8658   0.8682   0.8690   0.8779   0.8846   0.8883   0.8939
  0.9051   0.9072   0.9143   0.9231   0.9272   0.9294   0.9350   0.9426
  0.9452   0.9506   0.9536   0.9600   0.9660   0.9671   0.9787   0.9850
  0.9890   0.9894   0.9911   0.9942   1.0079   1.0149   1.0227   1.0294
  1.0370   1.0441   1.0545   1.0613   1.0642   1.0726   1.0793   1.0924
  1.1032   1.1188   1.1407   1.1494   1.1703   1.1742   1.2090   1.2231
  1.2472   1.2554   1.2742   1.3075   1.3331   1.3444   1.3580   1.3602
  1.3916   1.4218   1.4247   1.4439   1.4466   1.4596   1.4695   1.4791
  1.4869   1.5132   1.5446   1.5799   1.5865   1.5942   1.6057   1.6119
  1.6195   1.6295   1.6409   1.6560   1.7001   1.7097   1.7293   1.7536
  1.7598   1.7800   1.8016   1.8133   1.8346   1.8443   1.8536   1.8632
  1.8742   1.8931   1.8971   1.9040   1.9096   1.9223   1.9385   1.9530
  1.9584   1.9693   1.9846   1.9874   1.9953   1.9975   2.0159   2.0241
  2.0316   2.0354   2.0437   2.0569   2.0607   2.0830   2.0979   2.1061
  2.1233   2.1273   2.1391   2.1555   2.1704   2.1871   2.2035   2.2109
  2.2465   2.2500   2.2608   2.2762   2.2969   2.3047   2.3190   2.3256
  2.3366   2.3448   2.3603   2.3655   2.3861   2.3876   2.4005   2.4144
  2.4275   2.4337   2.4429   2.4601   2.4676   2.4824   2.4926   2.5080
  2.5135   2.5419   2.5689   2.5795   2.6098   2.6174   2.6297   2.6595
  2.6835   2.6964   2.7235   2.7522   2.7569   2.7744   2.7914   2.8288
  2.8559   2.9400   2.9593   3.0182   3.1362   3.2229   3.9797   4.1256
  4.1280   4.1370   4.1407   4.1757   4.1888   4.2198   4.2416   4.2827
  4.3265   4.3605   4.3727   4.4361   4.4498   4.4871   4.5566   4.5603
  4.5705   4.6180   4.7267
 --------------------------------------------------------------
 
          Ground-State Mulliken Net Atomic Charges

     Atom                 Charge (a.u.)
  ----------------------------------------
      1 C                    -0.379454
      2 C                    -0.048409
      3 C                    -0.210809
      4 S                     0.227641
      5 C                    -0.212012
      6 C                    -0.051749
      7 C                    -0.380989
      8 C                     0.120076
      9 C                    -0.358121
     10 C                    -0.258909
     11 C                    -0.270119
     12 C                    -0.252376
     13 C                    -0.252445
     14 C                    -0.441100
     15 C                     0.121320
     16 C                    -0.358498
     17 C                    -0.254166
     18 C                    -0.261915
     19 C                    -0.249234
     20 C                    -0.250198
     21 C                    -0.444726
     22 H                     0.143710
     23 H                     0.157983
     24 H                     0.136435
     25 H                     0.140810
     26 H                     0.158287
     27 H                     0.144069
     28 H                     0.147827
     29 H                     0.146012
     30 H                     0.141148
     31 H                     0.134123
     32 H                     0.153578
     33 H                     0.129386
     34 H                     0.124573
     35 H                     0.131842
     36 H                     0.132237
     37 H                     0.133708
     38 H                     0.142594
     39 H                     0.141547
     40 H                     0.140679
     41 H                     0.146918
     42 H                     0.144228
     43 H                     0.139350
     44 H                     0.130651
     45 H                     0.128402
     46 H                     0.153148
     47 H                     0.126869
     48 H                     0.124140
     49 H                     0.134043
     50 H                     0.128190
     51 H                     0.148664
     52 H                     0.142033
     53 H                     0.139006
  ----------------------------------------
  Sum of atomic charges =     0.000000

 -----------------------------------------------------------------
                    Cartesian Multipole Moments
 -----------------------------------------------------------------
    Charge (ESU x 10^10)
                 0.0000
    Dipole Moment (Debye)
         X       0.2353      Y      -1.4004      Z      -0.2612
       Tot       1.4438
    Quadrupole Moments (Debye-Ang)
        XX    -136.3422     XY      -0.1330     YY    -138.4955
        XZ       3.8485     YZ       1.6903     ZZ    -139.6030
    Octopole Moments (Debye-Ang^2)
       XXX       0.4065    XXY       7.5204    XYY      -3.2602
       YYY       6.5195    XXZ      -7.4544    XYZ       7.5206
       YYZ       4.8464    XZZ      -0.6603    YZZ      -3.7712
       ZZZ      -1.8572
    Hexadecapole Moments (Debye-Ang^3)
      XXXX  -10653.1595   XXXY      10.9174   XXYY   -2168.6718
      XYYY     -11.6896   YYYY   -2614.3442   XXXZ     -17.2449
      XXYZ       8.0299   XYYZ      27.4641   YYYZ      30.5352
      XXZZ   -1900.8283   XYZZ      10.9283   YYZZ    -622.0105
      XZZZ      12.2619   YZZZ       5.0169   ZZZZ   -1041.3269
 -----------------------------------------------------------------
Archival summary:
1\1\nia0001.scinet.local\SP\ProcedureUnspecified\6-31G*\12032\rhickman\FriFeb412:34:462022FriFeb412:34:462022\0\\#,ProcedureUnspecified,6-31G*,\\0,1\S\C,1,1.73845\C,2,1.37806,1,111.269\C,3,1.41992,2,112.943,1,-0.367896,0\C,4,1.37825,3,112.898,2,0.513079,0\C,2,1.43791,1,120.068,3,-179.35,0\H,6,1.08147,2,115.592,1,173.844,0\C,6,1.33046,2,124.869,1,-6.10025,0\H,8,1.07565,6,121.665,2,179.595,0\H,8,1.07742,6,121.541,2,-0.511841,0\C,5,1.43819,4,128.758,3,178.555,0\H,11,1.08101,5,115.716,4,-4.68117,0\C,11,1.33054,5,124.839,4,175.391,0\H,13,1.07559,11,121.615,5,179.612,0\H,13,1.07745,11,121.569,5,-0.514548,0\C,4,1.49898,3,122.976,2,-176.32,0\H,16,1.08976,4,110.266,3,-155.748,0\H,16,1.09114,4,109.319,3,-37.9585,0\C,3,1.49915,2,123.8,1,176.251,0\H,19,1.09091,3,110.219,2,28.6234,0\H,19,1.09097,3,109.509,2,146.661,0\C,19,1.53703,3,111.765,2,-92.7904,0\H,22,1.09258,19,109.346,3,-54.4081,0\H,22,1.09303,19,108.57,3,-171.67,0\C,22,1.52551,19,112.901,3,67.1275,0\H,25,1.091,22,109.032,19,58.8338,0\H,25,1.09198,22,109.446,19,-58.9734,0\C,25,1.52694,22,111.727,19,-179.964,0\H,28,1.093,25,109.422,22,-63.7339,0\H,28,1.09321,25,108.774,22,53.4747,0\C,28,1.52884,25,113.093,22,174.187,0\H,31,1.09239,28,109.146,25,-56.3968,0\H,31,1.09282,28,108.521,25,-173.407,0\C,31,1.52429,28,113.245,25,65.6115,0\H,34,1.08681,31,111.003,28,-65.9589,0\H,34,1.08772,31,110.267,28,174.329,0\H,34,1.08812,31,110.491,28,54.5933,0\C,16,1.53823,4,111.622,3,82.2162,0\H,38,1.09148,16,108.702,4,-166.727,0\H,38,1.09227,16,108.643,4,-49.9527,0\C,38,1.52911,16,113.613,4,71.0067,0\H,41,1.09184,38,108.713,16,-45.2232,0\H,41,1.09266,38,108.89,16,-161.817,0\C,41,1.53013,38,113.91,16,77.0532,0\H,44,1.09173,41,110.029,38,-45.6546,0\H,44,1.09263,41,108.759,38,-162.99,0\C,44,1.52744,41,113.057,38,76.3202,0\H,47,1.0918,44,109.876,41,-59.3724,0\H,47,1.09255,44,109.179,41,58.4104,0\C,47,1.52388,44,111.642,41,179.461,0\H,50,1.08763,47,110.678,44,-179.652,0\H,50,1.08801,47,110.516,44,-59.5745,0\H,50,1.08816,47,110.569,44,60.2794,0\\\@

 Total job time:  139.51s(wall), 139.15s(cpu) 
 Fri Feb  4 12:34:46 2022

        *************************************************************
        *                                                           *
        *  Thank you very much for using Q-Chem.  Have a nice day.  *
        *                                                           *
        *************************************************************


