
Running Job 1 of 1 fragments/B008/conf-2/spe_input.inp
qchem fragments/B008/conf-2/spe_input.inp_257549.0 /gpfs/fs0/scratch/a/aspuru/rhickman/descriptor_computation/qchem257549/ 0
/scinet/niagara/software/commercial/qc52/exe/qcprog.exe_s fragments/B008/conf-2/spe_input.inp_257549.0 /gpfs/fs0/scratch/a/aspuru/rhickman/descriptor_computation/qchem257549/
                  Welcome to Q-Chem
     A Quantum Leap Into The Future Of Chemistry


 Q-Chem 5.2, Q-Chem, Inc., Pleasanton, CA (2019)

 License issued to: SRG Alan Aspuru-Guzik, University of Toronto

 Yihan Shao,  Zhengting Gan,  E. Epifanovsky,  A. T. B. Gilbert,  M. Wormit,  
 J. Kussmann,  A. W. Lange,  A. Behn,  Jia Deng,  Xintian Feng,  D. Ghosh,  
 M. Goldey,  P. R. Horn,  L. D. Jacobson,  I. Kaliman,  T. Kus,  A. Landau,  
 Jie Liu,  E. I. Proynov,  R. M. Richard,  R. P. Steele,  E. J. Sundstrom,  
 H. L. Woodcock III,  P. M. Zimmerman,  D. Zuev,  B. Albrecht,  E. Alguire,  
 S. A. Baeppler,  D. Barton,  Z. Benda,  Y. A. Bernard,  E. J. Berquist,  
 K. B. Bravaya,  H. Burton,  D. Casanova,  Chun-Min Chang,  Yunqing Chen,  
 A. Chien,  K. D. Closser,  M. P. Coons,  S. Coriani,  S. Dasgupta,  
 A. L. Dempwolff,  M. Diedenhofen,  Hainam Do,  R. G. Edgar,  Po-Tung Fang,  
 S. Faraji,  S. Fatehi,  Qingguo Feng,  K. D. Fenk,  J. Fosso-Tande,  
 J. Gayvert,  Qinghui Ge,  A. Ghysels,  G. Gidofalvi,  J. Gomes,  
 J. Gonthier,  A. Gunina,  D. Hait,  M. W. D. Hanson-Heine,  
 P. H. P. Harbach,  A. W. Hauser,  M. F. Herbst,  J. E. Herr,  
 E. G. Hohenstein,  Z. C. Holden,  Kerwin Hui,  B. C. Huynh,  T.-C. Jagau,  
 Hyunjun Ji,  B. Kaduk,  K. Khistyaev,  Jaehoon Kim,  P. Klunzinger,  K. Koh,  
 D. Kosenkov,  L. Koulias,  T. Kowalczyk,  C. M. Krauter,  A. Kunitsa,  
 Ka Un Lao,  A. Laurent,  K. V. Lawler,  Joonho Lee,  D. Lefrancois,  
 S. Lehtola,  D. S. Levine,  Yi-Pei Li,  You-Sheng Lin,  Fenglai Liu,  
 E. Livshits,  A. Luenser,  P. Manohar,  E. Mansoor,  S. F. Manzer,  
 Shan-Ping Mao,  Yuezhi Mao,  N. Mardirossian,  A. V. Marenich,  
 T. Markovich,  L. A. Martinez-Martinez,  S. A. Maurer,  N. J. Mayhall,  
 S. C. McKenzie,  J.-M. Mewes,  P. Morgante,  A. F. Morrison,  
 J. W. Mullinax,  K. Nanda,  T. S. Nguyen-Beck,  R. Olivares-Amaya,  
 J. A. Parkhill,  Zheng Pei,  T. M. Perrine,  F. Plasser,  P. Pokhilko,  
 S. Prager,  A. Prociuk,  E. Ramos,  D. R. Rehn,  F. Rob,  M. Scheurer,  
 M. Schneider,  N. Sergueev,  S. M. Sharada,  S. Sharma,  D. W. Small,  
 T. Stauch,  T. Stein,  Yu-Chuan Su,  A. J. W. Thom,  A. Tkatchenko,  
 T. Tsuchimochi,  N. M. Tubman,  L. Vogt,  M. L. Vidal,  O. Vydrov,  
 M. A. Watson,  J. Wenzel,  M. de Wergifosse,  T. A. Wesolowski,  A. White,  
 J. Witte,  A. Yamada,  Jun Yang,  K. Yao,  S. Yeganeh,  S. R. Yost,  
 Zhi-Qiang You,  A. Zech,  Igor Ying Zhang,  Xing Zhang,  Yan Zhao,  
 Ying Zhu,  B. R. Brooks,  G. K. L. Chan,  C. J. Cramer,  M. S. Gordon,  
 W. J. Hehre,  A. Klamt,  M. W. Schmidt,  C. D. Sherrill,  D. G. Truhlar,  
 A. Aspuru-Guzik,  R. Baer,  A. T. Bell,  N. A. Besley,  Jeng-Da Chai,  
 A. E. DePrince, III,  R. A. DiStasio Jr.,  A. Dreuw,  B. D. Dunietz,  
 T. R. Furlani,  Chao-Ping Hsu,  Yousung Jung,  Jing Kong,  D. S. Lambrecht,  
 WanZhen Liang,  C. Ochsenfeld,  V. A. Rassolov,  L. V. Slipchenko,  
 J. E. Subotnik,  T. Van Voorhis,  J. M. Herbert,  A. I. Krylov,  
 P. M. W. Gill,  M. Head-Gordon

 Contributors to earlier versions of Q-Chem not listed above: 
 R. D. Adamson,  B. Austin,  J. Baker,  G. J. O. Beran,  K. Brandhorst,  
 S. T. Brown,  E. F. C. Byrd,  A. K. Chakraborty,  C.-L. Cheng,  
 Siu Hung Chien,  D. M. Chipman,  D. L. Crittenden,  H. Dachsel,  
 R. J. Doerksen,  A. D. Dutoi,  L. Fusti-Molnar,  W. A. Goddard III,  
 A. Golubeva-Zadorozhnaya,  S. R. Gwaltney,  G. Hawkins,  A. Heyden,  
 S. Hirata,  G. Kedziora,  F. J. Keil,  C. Kelley,  Jihan Kim,  R. A. King,  
 R. Z. Khaliullin,  P. P. Korambath,  W. Kurlancheek,  A. M. Lee,  M. S. Lee,  
 S. V. Levchenko,  Ching Yeh Lin,  D. Liotard,  R. C. Lochan,  I. Lotan,  
 P. E. Maslen,  N. Nair,  D. P. O'Neill,  D. Neuhauser,  E. Neuscamman,  
 C. M. Oana,  R. Olson,  B. Peters,  R. Peverati,  P. A. Pieniazek,  
 Y. M. Rhee,  J. Ritchie,  M. A. Rohrdanz,  E. Rosta,  N. J. Russ,  
 H. F. Schaefer III,  N. E. Schultz,  N. Shenvi,  A. C. Simmonett,  A. Sodt,  
 D. Stuck,  K. S. Thanthiriwatte,  V. Vanovschi,  Tao Wang,  A. Warshel,  
 C. F. Williams,  Q. Wu,  X. Xu,  W. Zhang

 Please cite Q-Chem as follows:
 Y. Shao et al., Mol. Phys. 113, 184-215 (2015)
 DOI: 10.1080/00268976.2014.952696

 Q-Chem 5.2.1 for Intel X86 EM64T Linux

 Parts of Q-Chem use Armadillo 8.300.2 (Tropical Shenanigans).
 http://arma.sourceforge.net/

 Q-Chem begins on Mon Feb  7 08:51:10 2022  

Host: 
0

     Scratch files written to /gpfs/fs0/scratch/a/aspuru/rhickman/descriptor_computation/qchem257549//
 Jul1719 |scratch|qcdevops|jenkins|workspace|build_RNUM -1
Processing $rem in /scinet/niagara/software/commercial/qc52/config/preferences:
	 MEM_TOTAL  4000 
NAlpha2: 86
NElect   86
Mult     1

Checking the input file for inconsistencies... 	...done.

--------------------------------------------------------------
User input:
--------------------------------------------------------------
$molecule
0 1
C         0.02538398390000    2.54405987960000    0.15645407740000
C        -0.59879896810000    1.69872517240000   -0.64905201990000
C        -1.08658777170000    0.37424421340000   -0.25070201880000
C        -2.39014187040000    0.02628372150000   -0.60036427200000
C        -2.95886319080000   -1.15745882720000   -0.17258554590000
C        -2.22657970810000   -2.02380494840000    0.62282823130000
C        -0.92403623610000   -1.70847182580000    0.95701629680000
C        -0.33220505470000   -0.52784323200000    0.51222573600000
C         1.08226322720000   -0.31907226970000    0.83804703300000
C         2.01258377220000    0.07086475040000   -0.01433468510000
F         1.84277218130000    0.37846200630000   -1.29429299740000
F         3.30068218380000    0.20405043510000    0.30057669310000
H         0.32414576210000    3.52376897220000   -0.17434877930000
H         0.25420511580000    2.29357992000000    1.17955621950000
H        -0.84738530550000    1.99711901930000   -1.65938787770000
H        -2.96734591860000    0.71387918370000   -1.20171031620000
H        -3.97290851740000   -1.40156341620000   -0.45175751120000
H        -2.66600677840000   -2.94533920460000    0.97373735410000
H        -0.34077252520000   -2.39326296020000    1.55556104640000
H         1.41335479210000   -0.58357467750000    1.83136204880000
$end

$rem
BASIS = 6-31G*
GUI = 2
METHOD = B3LYP
PRINT_ORBITALS false
MOLDEN_FORMAT false
--------------------------------------------------------------
 ----------------------------------------------------------------
             Standard Nuclear Orientation (Angstroms)
    I     Atom           X                Y                Z
 ----------------------------------------------------------------
    1      C      -0.9632696074     2.1278827688    -1.0141204548
    2      C      -0.1208203791     1.8898723346    -0.0208100659
    3      C       0.8068390289     0.7551408502     0.0311796638
    4      C       2.1352988497     1.0127136275     0.3650123353
    5      C       3.0919377330     0.0169732372     0.3329479869
    6      C       2.7337093764    -1.2685929408    -0.0391673503
    7      C       1.4167382001    -1.5486764307    -0.3471873127
    8      C       0.4387783978    -0.5572250162    -0.2961443445
    9      C      -0.9471056445    -0.9644512634    -0.5490426593
   10      C      -1.9886968296    -0.6278252215     0.1897891893
   11      F      -1.9869070592     0.1580154289     1.2594604464
   12      F      -3.2305265860    -1.0548264975    -0.0374417224
   13      H      -1.5926831393     3.0009538989    -1.0243402276
   14      H      -1.0504984398     1.4646830282    -1.8593390943
   15      H      -0.0309236439     2.5968039628     0.7939161768
   16      H       2.4170935960     2.0209087262     0.6327873558
   17      H       4.1159644646     0.2430766532     0.5899663895
   18      H       3.4760613280    -2.0513211013    -0.0805068550
   19      H       1.1281808247    -2.5554397562    -0.6128064364
   20      H      -1.1267469352    -1.6632374683    -1.3525877515
 ----------------------------------------------------------------
 Molecular Point Group                 C1    NOp =  1
 Largest Abelian Subgroup              C1    NOp =  1
 Nuclear Repulsion Energy =         662.22522225 hartrees
 There are       43 alpha and       43 beta electrons
 Requested basis set is 6-31G(d)
 There are 64 shells and 196 basis functions

 Total QAlloc Memory Limit   4000 MB
 Mega-Array Size       188 MB
 MEM_STATIC part       192 MB
 A cutoff of  1.0D-08 yielded   1549 shell pairs
 There are     15664 function pairs
 Smallest overlap matrix eigenvalue = 3.72E-04

 Scale SEOQF with 1.000000e-01/1.000000e-01/1.000000e-01

 Standard Electronic Orientation quadrupole field applied
 Nucleus-field energy     =     0.0000000188 hartrees
 Guess from superposition of atomic densities
 Warning:  Energy on first SCF cycle will be non-variational
 SAD guess density has 86.000000 electrons

 -----------------------------------------------------------------------
  General SCF calculation program by
  Eric Jon Sundstrom, Paul Horn, Yuezhi Mao, Dmitri Zuev, Alec White,
  David Stuck, Shaama M.S., Shane Yost, Joonho Lee, David Small,
  Daniel Levine, Susi Lehtola, Hugh Burton, Evgeny Epifanovsky,
  Bang C. Huynh
 -----------------------------------------------------------------------
 Exchange:     0.2000 Hartree-Fock + 0.0800 Slater + 0.7200 B88
 Correlation:  0.1900 VWN1RPA + 0.8100 LYP
 Using SG-1 standard quadrature grid
 A restricted SCF calculation will be
 performed using DIIS
 SCF converges when DIIS error is below 1.0e-05
 ---------------------------------------
  Cycle       Energy         DIIS error
 ---------------------------------------
    1    -588.1853486450      5.68e-02  
    2    -585.3005326234      6.38e-03  
    3    -585.1621689640      8.37e-03  
    4    -585.4910694860      1.59e-03  
    5    -585.5027061492      4.83e-04  
    6    -585.5035369848      2.53e-04  
    7    -585.5038561511      5.17e-05  
    8    -585.5038684352      1.78e-05  
    9    -585.5038699595      4.55e-06  Convergence criterion met
 ---------------------------------------
 SCF time:   CPU 28.07s  wall 28.00s 
 SCF   energy in the final basis set =     -585.5038699595
 Total energy in the final basis set =     -585.5038699595
 
 --------------------------------------------------------------
 
                    Orbital Energies (a.u.)
 --------------------------------------------------------------
 
 Alpha MOs
 -- Occupied --
-24.7330 -24.7289 -10.3494 -10.2038 -10.1971 -10.1958 -10.1893 -10.1886
-10.1886 -10.1882 -10.1877 -10.1775  -1.2767  -1.2167  -0.8714  -0.8040
 -0.7900  -0.7400  -0.7250  -0.6421  -0.6171  -0.6050  -0.5685  -0.5631
 -0.5226  -0.5116  -0.4974  -0.4707  -0.4613  -0.4383  -0.4337  -0.4316
 -0.4237  -0.4180  -0.4051  -0.3773  -0.3681  -0.3508  -0.3420  -0.2866
 -0.2829  -0.2412  -0.2175
 -- Virtual --
 -0.0281  -0.0092   0.0418   0.0528   0.0943   0.1160   0.1246   0.1502
  0.1550   0.1634   0.1726   0.1889   0.1905   0.1928   0.2106   0.2808
  0.3043   0.3198   0.3256   0.3492   0.3575   0.4023   0.4218   0.4847
  0.4875   0.4978   0.5161   0.5191   0.5307   0.5559   0.5581   0.5651
  0.5762   0.5912   0.6031   0.6115   0.6152   0.6172   0.6386   0.6537
  0.6737   0.6792   0.6948   0.7185   0.7284   0.7764   0.8073   0.8345
  0.8373   0.8401   0.8535   0.8629   0.8774   0.9002   0.9078   0.9329
  0.9513   0.9640   0.9670   0.9886   1.0105   1.0584   1.0861   1.1003
  1.1051   1.1346   1.1419   1.1696   1.1759   1.2314   1.2458   1.2706
  1.2801   1.3135   1.3365   1.3593   1.4132   1.4254   1.4346   1.4609
  1.4700   1.4918   1.5032   1.5093   1.5246   1.5711   1.6079   1.6589
  1.6882   1.7394   1.7628   1.7787   1.8096   1.8135   1.8375   1.8515
  1.8842   1.9019   1.9123   1.9251   1.9589   1.9767   1.9921   2.0085
  2.0225   2.0407   2.0516   2.0892   2.1317   2.1382   2.1528   2.1695
  2.2201   2.2244   2.2378   2.2574   2.3010   2.3181   2.3400   2.4025
  2.4193   2.4977   2.5133   2.5488   2.5831   2.6037   2.6255   2.6714
  2.6744   2.7303   2.7505   2.7686   2.8172   2.8502   2.8965   2.9942
  3.0166   3.1093   3.1439   3.2805   3.4662   4.0965   4.1131   4.1217
  4.1387   4.1983   4.2714   4.3102   4.4124   4.4553   4.7651   4.8098
  5.2654
 --------------------------------------------------------------
 
          Ground-State Mulliken Net Atomic Charges

     Atom                 Charge (a.u.)
  ----------------------------------------
      1 C                    -0.327567
      2 C                    -0.142764
      3 C                     0.104598
      4 C                    -0.183484
      5 C                    -0.124068
      6 C                    -0.127853
      7 C                    -0.176700
      8 C                     0.119895
      9 C                    -0.354307
     10 C                     0.582725
     11 F                    -0.234117
     12 F                    -0.249864
     13 H                     0.143354
     14 H                     0.149327
     15 H                     0.137746
     16 H                     0.129494
     17 H                     0.130014
     18 H                     0.130154
     19 H                     0.129249
     20 H                     0.164168
  ----------------------------------------
  Sum of atomic charges =     0.000000

 -----------------------------------------------------------------
                    Cartesian Multipole Moments
 -----------------------------------------------------------------
    Charge (ESU x 10^10)
                 0.0000
    Dipole Moment (Debye)
         X       1.0931      Y      -0.1526      Z      -0.4739
       Tot       1.2011
    Quadrupole Moments (Debye-Ang)
        XX     -65.9725     XY      -1.5094     YY     -62.1815
        XZ       2.7551     YZ       2.5200     ZZ     -68.1391
    Octopole Moments (Debye-Ang^2)
       XXX     -10.6013    XXY      -0.1998    XYY     -11.1886
       YYY      -7.1423    XXZ       5.9630    XYZ       4.1153
       YYZ       3.6133    XZZ     -19.7823    YZZ      -2.7365
       ZZZ       7.8399
    Hexadecapole Moments (Debye-Ang^3)
      XXXX   -1524.6398   XXXY      -0.2224   XXYY    -360.7334
      XYYY       4.5107   YYYY    -687.1990   XXXZ       2.7437
      XXYZ       3.4180   XYYZ       0.6280   YYYZ      21.5197
      XXZZ    -306.4026   XYZZ      11.5006   YYZZ    -152.0313
      XZZZ     -16.1075   YZZZ       5.3167   ZZZZ    -199.6855
 -----------------------------------------------------------------
Archival summary:
1\1\nia0005.scinet.local\SP\ProcedureUnspecified\6-31G*\2108\rhickman\MonFeb708:51:382022MonFeb708:51:382022\0\\#,ProcedureUnspecified,6-31G*,\\0,1\F\C,1,1.32731\C,2,1.32064,1,126.92\H,3,1.07993,2,116.744,1,176.536,0\F,2,1.33271,1,109.169,3,179.47,0\C,3,1.46645,2,125.317,1,2.00009,0\C,6,1.39355,3,117.344,2,132.513,0\H,7,1.08046,6,118.98,3,2.81247,0\C,7,1.38121,6,121.111,3,-175.887,0\H,9,1.07956,7,120.006,6,179.739,0\C,9,1.38545,7,119.643,6,0.284531,0\H,11,1.07973,9,120.23,7,179.087,0\C,11,1.38119,9,119.742,7,-1.37703,0\H,13,1.08054,11,119.854,9,-178.585,0\C,13,1.39377,11,121.424,9,0.0721906,0\C,15,1.46658,13,117.93,11,-174.836,0\H,16,1.08241,15,115.221,13,-43.5061,0\C,16,1.32402,15,124.621,13,132.033,0\H,18,1.07635,16,121.669,15,-177.176,0\H,18,1.07789,16,121.949,15,2.27161,0\\\@

 Total job time:  28.34s(wall), 28.24s(cpu) 
 Mon Feb  7 08:51:38 2022

        *************************************************************
        *                                                           *
        *  Thank you very much for using Q-Chem.  Have a nice day.  *
        *                                                           *
        *************************************************************


