
Running Job 1 of 1 fragments/A030/conf-2/spe_input.inp
qchem fragments/A030/conf-2/spe_input.inp_89209.0 /gpfs/fs0/scratch/a/aspuru/rhickman/descriptor_computation/qchem89209/ 0
/scinet/niagara/software/commercial/qc52/exe/qcprog.exe_s fragments/A030/conf-2/spe_input.inp_89209.0 /gpfs/fs0/scratch/a/aspuru/rhickman/descriptor_computation/qchem89209/
                  Welcome to Q-Chem
     A Quantum Leap Into The Future Of Chemistry


 Q-Chem 5.2, Q-Chem, Inc., Pleasanton, CA (2019)

 License issued to: SRG Alan Aspuru-Guzik, University of Toronto

 Yihan Shao,  Zhengting Gan,  E. Epifanovsky,  A. T. B. Gilbert,  M. Wormit,  
 J. Kussmann,  A. W. Lange,  A. Behn,  Jia Deng,  Xintian Feng,  D. Ghosh,  
 M. Goldey,  P. R. Horn,  L. D. Jacobson,  I. Kaliman,  T. Kus,  A. Landau,  
 Jie Liu,  E. I. Proynov,  R. M. Richard,  R. P. Steele,  E. J. Sundstrom,  
 H. L. Woodcock III,  P. M. Zimmerman,  D. Zuev,  B. Albrecht,  E. Alguire,  
 S. A. Baeppler,  D. Barton,  Z. Benda,  Y. A. Bernard,  E. J. Berquist,  
 K. B. Bravaya,  H. Burton,  D. Casanova,  Chun-Min Chang,  Yunqing Chen,  
 A. Chien,  K. D. Closser,  M. P. Coons,  S. Coriani,  S. Dasgupta,  
 A. L. Dempwolff,  M. Diedenhofen,  Hainam Do,  R. G. Edgar,  Po-Tung Fang,  
 S. Faraji,  S. Fatehi,  Qingguo Feng,  K. D. Fenk,  J. Fosso-Tande,  
 J. Gayvert,  Qinghui Ge,  A. Ghysels,  G. Gidofalvi,  J. Gomes,  
 J. Gonthier,  A. Gunina,  D. Hait,  M. W. D. Hanson-Heine,  
 P. H. P. Harbach,  A. W. Hauser,  M. F. Herbst,  J. E. Herr,  
 E. G. Hohenstein,  Z. C. Holden,  Kerwin Hui,  B. C. Huynh,  T.-C. Jagau,  
 Hyunjun Ji,  B. Kaduk,  K. Khistyaev,  Jaehoon Kim,  P. Klunzinger,  K. Koh,  
 D. Kosenkov,  L. Koulias,  T. Kowalczyk,  C. M. Krauter,  A. Kunitsa,  
 Ka Un Lao,  A. Laurent,  K. V. Lawler,  Joonho Lee,  D. Lefrancois,  
 S. Lehtola,  D. S. Levine,  Yi-Pei Li,  You-Sheng Lin,  Fenglai Liu,  
 E. Livshits,  A. Luenser,  P. Manohar,  E. Mansoor,  S. F. Manzer,  
 Shan-Ping Mao,  Yuezhi Mao,  N. Mardirossian,  A. V. Marenich,  
 T. Markovich,  L. A. Martinez-Martinez,  S. A. Maurer,  N. J. Mayhall,  
 S. C. McKenzie,  J.-M. Mewes,  P. Morgante,  A. F. Morrison,  
 J. W. Mullinax,  K. Nanda,  T. S. Nguyen-Beck,  R. Olivares-Amaya,  
 J. A. Parkhill,  Zheng Pei,  T. M. Perrine,  F. Plasser,  P. Pokhilko,  
 S. Prager,  A. Prociuk,  E. Ramos,  D. R. Rehn,  F. Rob,  M. Scheurer,  
 M. Schneider,  N. Sergueev,  S. M. Sharada,  S. Sharma,  D. W. Small,  
 T. Stauch,  T. Stein,  Yu-Chuan Su,  A. J. W. Thom,  A. Tkatchenko,  
 T. Tsuchimochi,  N. M. Tubman,  L. Vogt,  M. L. Vidal,  O. Vydrov,  
 M. A. Watson,  J. Wenzel,  M. de Wergifosse,  T. A. Wesolowski,  A. White,  
 J. Witte,  A. Yamada,  Jun Yang,  K. Yao,  S. Yeganeh,  S. R. Yost,  
 Zhi-Qiang You,  A. Zech,  Igor Ying Zhang,  Xing Zhang,  Yan Zhao,  
 Ying Zhu,  B. R. Brooks,  G. K. L. Chan,  C. J. Cramer,  M. S. Gordon,  
 W. J. Hehre,  A. Klamt,  M. W. Schmidt,  C. D. Sherrill,  D. G. Truhlar,  
 A. Aspuru-Guzik,  R. Baer,  A. T. Bell,  N. A. Besley,  Jeng-Da Chai,  
 A. E. DePrince, III,  R. A. DiStasio Jr.,  A. Dreuw,  B. D. Dunietz,  
 T. R. Furlani,  Chao-Ping Hsu,  Yousung Jung,  Jing Kong,  D. S. Lambrecht,  
 WanZhen Liang,  C. Ochsenfeld,  V. A. Rassolov,  L. V. Slipchenko,  
 J. E. Subotnik,  T. Van Voorhis,  J. M. Herbert,  A. I. Krylov,  
 P. M. W. Gill,  M. Head-Gordon

 Contributors to earlier versions of Q-Chem not listed above: 
 R. D. Adamson,  B. Austin,  J. Baker,  G. J. O. Beran,  K. Brandhorst,  
 S. T. Brown,  E. F. C. Byrd,  A. K. Chakraborty,  C.-L. Cheng,  
 Siu Hung Chien,  D. M. Chipman,  D. L. Crittenden,  H. Dachsel,  
 R. J. Doerksen,  A. D. Dutoi,  L. Fusti-Molnar,  W. A. Goddard III,  
 A. Golubeva-Zadorozhnaya,  S. R. Gwaltney,  G. Hawkins,  A. Heyden,  
 S. Hirata,  G. Kedziora,  F. J. Keil,  C. Kelley,  Jihan Kim,  R. A. King,  
 R. Z. Khaliullin,  P. P. Korambath,  W. Kurlancheek,  A. M. Lee,  M. S. Lee,  
 S. V. Levchenko,  Ching Yeh Lin,  D. Liotard,  R. C. Lochan,  I. Lotan,  
 P. E. Maslen,  N. Nair,  D. P. O'Neill,  D. Neuhauser,  E. Neuscamman,  
 C. M. Oana,  R. Olson,  B. Peters,  R. Peverati,  P. A. Pieniazek,  
 Y. M. Rhee,  J. Ritchie,  M. A. Rohrdanz,  E. Rosta,  N. J. Russ,  
 H. F. Schaefer III,  N. E. Schultz,  N. Shenvi,  A. C. Simmonett,  A. Sodt,  
 D. Stuck,  K. S. Thanthiriwatte,  V. Vanovschi,  Tao Wang,  A. Warshel,  
 C. F. Williams,  Q. Wu,  X. Xu,  W. Zhang

 Please cite Q-Chem as follows:
 Y. Shao et al., Mol. Phys. 113, 184-215 (2015)
 DOI: 10.1080/00268976.2014.952696

 Q-Chem 5.2.1 for Intel X86 EM64T Linux

 Parts of Q-Chem use Armadillo 8.300.2 (Tropical Shenanigans).
 http://arma.sourceforge.net/

 Q-Chem begins on Mon Feb  7 15:01:50 2022  

Host: 
0

     Scratch files written to /gpfs/fs0/scratch/a/aspuru/rhickman/descriptor_computation/qchem89209//
 Jul1719 |scratch|qcdevops|jenkins|workspace|build_RNUM -1
Processing $rem in /scinet/niagara/software/commercial/qc52/config/preferences:
	 MEM_TOTAL  4000 
NAlpha2: 222
NElect   222
Mult     1

Checking the input file for inconsistencies... 	...done.

--------------------------------------------------------------
User input:
--------------------------------------------------------------
$molecule
0 1
C         2.77509760340000   -0.61795052290000   -2.51003165790000
O         1.89293058090000   -1.39852089710000   -1.71525108690000
C         2.46592888100000   -2.28961177700000   -0.89469234320000
C         1.45600986630000   -3.06742513720000   -0.12468342120000
C         0.33966536580000   -2.47973764690000    0.48589189880000
N         0.15550437990000   -1.09058747960000    0.50197839710000
C         1.23882405420000   -0.24577808400000    0.72174546970000
C         1.29932962880000    1.00282783850000    0.10434331100000
C         2.39878135360000    1.82031312220000    0.30945394050000
C         2.42604413280000    3.13476381190000   -0.41496253810000
F         1.33034331930000    3.87652855680000   -0.16997510740000
F         3.47967991990000    3.89899165420000   -0.10511735380000
F         2.46184536660000    2.96639944520000   -1.75451082930000
C         3.45246446380000    1.42396860390000    1.12068154210000
C         3.38476096680000    0.18525031560000    1.73820842750000
C         2.29531355900000   -0.64050567180000    1.54781128630000
C        -1.12315670770000   -0.57186023070000    0.27017353100000
C        -1.57498581760000    0.55389025310000    0.95964763600000
C        -2.83871432140000    1.05592132690000    0.73529330690000
C        -3.69822484430000    0.44709735910000   -0.18305014030000
C        -5.04114985350000    0.92070189300000   -0.46540141130000
C        -5.69133134530000    1.93628746280000    0.08519685550000
F        -5.26653022980000    2.76294369160000    1.03321318190000
F        -6.93258092310000    2.27569940580000   -0.25859481030000
C        -3.23764766830000   -0.68138391670000   -0.86792380740000
C        -1.97463245410000   -1.18477164810000   -0.64923814780000
C        -0.58673139560000   -3.30195594360000    1.12719147530000
C        -0.40376826850000   -4.66986524160000    1.17364797870000
C         0.72197569410000   -5.24526475910000    0.60398900290000
C         1.64729495900000   -4.44227678180000   -0.03501188180000
O         3.65472584070000   -2.47066873470000   -0.82851007810000
H         2.19209094660000    0.21440318440000   -2.89519783340000
H         3.17034855250000   -1.21908747190000   -3.33104930120000
H         3.60736561050000   -0.25564179910000   -1.90386533870000
H         0.50247420530000    1.32438330850000   -0.54879244290000
H         4.30422415380000    2.06906686240000    1.26312091700000
H         4.19210548000000   -0.13834562030000    2.37589005610000
H         2.25641035900000   -1.60109621340000    2.03903433310000
H        -0.92909181330000    1.03143851690000    1.68123764780000
H        -3.15634303940000    1.92512527710000    1.28659108390000
H        -5.59374741530000    0.38004873040000   -1.22034118960000
H        -3.88159815990000   -1.16377485230000   -1.58829476340000
H        -1.63143411860000   -2.05093884080000   -1.19464306140000
H        -1.44783874560000   -2.85071975520000    1.59754154260000
H        -1.13348883770000   -5.28782649020000    1.67462892300000
H         0.87536576090000   -6.31158676340000    0.65763096460000
H         2.52853021430000   -4.86719790850000   -0.49105854400000
$end

$rem
BASIS = 6-31G*
GUI = 2
METHOD = B3LYP
PRINT_ORBITALS false
MOLDEN_FORMAT false
--------------------------------------------------------------
 ----------------------------------------------------------------
             Standard Nuclear Orientation (Angstroms)
    I     Atom           X                Y                Z
 ----------------------------------------------------------------
    1      C       2.8650062887    -0.5068061892     2.3879040259
    2      O       2.2426922764     0.5603467977     1.6856970100
    3      C       3.0362808441     1.2865806647     0.8866424339
    4      C       2.2925672916     2.3886960719     0.2157657234
    5      C       1.0292670332     2.2166483071    -0.3663647390
    6      N       0.4226419418     0.9561103230    -0.4498046618
    7      C       1.1823238175    -0.1636010933    -0.7733966729
    8      C       0.8728630199    -1.4098997354    -0.2304078984
    9      C       1.6568393601    -2.5096579008    -0.5387254785
   10      C       1.2989264130    -3.8156306164     0.1090682369
   11      F       0.0195986504    -4.1655703365    -0.1182129077
   12      F       2.0524155973    -4.8435005969    -0.2982816833
   13      F       1.4298160561    -3.7596535245     1.4521067245
   14      C       2.7538601608    -2.4014343976    -1.3814949201
   15      C       3.0534098364    -1.1622964597    -1.9247751223
   16      C       2.2810146681    -0.0567474418    -1.6311993237
   17      C      -0.9454006571     0.8410817025    -0.1795945662
   18      C      -1.7470055822    -0.0405158807    -0.9055790586
   19      C      -3.0959281370    -0.1437768686    -0.6426629028
   20      C      -3.6929505597     0.6347557772     0.3524405069
   21      C      -5.1063583475     0.5788138356     0.6789676876
   22      C      -6.0575887625    -0.1468470069     0.1081038573
   23      F      -5.9421501083    -0.9963357044    -0.9055994194
   24      F      -7.3307070514    -0.1109705356     0.4979453533
   25      C      -2.8823403892     1.5165727531     1.0735252711
   26      C      -1.5334855999     1.6209479428     0.8163742760
   27      C       0.3829716926     3.3262980916    -0.9108817013
   28      C       0.9797830686     4.5713792633    -0.8909162962
   29      C       2.2468364825     4.7317088523    -0.3507630845
   30      C       2.8979998077     3.6407992075     0.1925876632
   31      O       4.2196689943     1.0973301831     0.7675766255
   32      H       2.0656345186    -1.1440614676     2.7566490897
   33      H       3.4544256451    -0.1147737456     3.2188999948
   34      H       3.5230540894    -1.0646414398     1.7191976789
   35      H       0.0377826185    -1.5151945765     0.4452521632
   36      H       3.3581088451    -3.2657525773    -1.6045933736
   37      H       3.8996033528    -1.0593619989    -2.5854704997
   38      H       2.5258149659     0.9008410578    -2.0655319252
   39      H      -1.3056302267    -0.6423917779    -1.6858717947
   40      H      -3.6858142042    -0.8327622422    -1.2237535421
   41      H      -5.4384027465     1.2095692733     1.4910625535
   42      H      -3.3204069998     2.1225309699     1.8527683967
   43      H      -0.9204462341     2.2995947825     1.3900627157
   44      H      -0.5908242003     3.1955215593    -1.3591764809
   45      H       0.4616196498     5.4169755639    -1.3173241858
   46      H       2.7217139161     5.7001789482    -0.3531475976
   47      H       3.8822744566     3.7414025708     0.6240902427
 ----------------------------------------------------------------
 Molecular Point Group                 C1    NOp =  1
 Largest Abelian Subgroup              C1    NOp =  1
 Nuclear Repulsion Energy =        3102.55884208 hartrees
 There are      111 alpha and      111 beta electrons
 Requested basis set is 6-31G(d)
 There are 156 shells and 497 basis functions

 Total QAlloc Memory Limit   4000 MB
 Mega-Array Size       188 MB
 MEM_STATIC part       192 MB
 A cutoff of  1.0D-08 yielded   5338 shell pairs
 There are     56605 function pairs
 Smallest overlap matrix eigenvalue = 3.26E-04

 Scale SEOQF with 1.000000e-02/1.000000e-02/1.000000e-01

 Standard Electronic Orientation quadrupole field applied
 Nucleus-field energy     =    -0.0000000080 hartrees
 Guess from superposition of atomic densities
 Warning:  Energy on first SCF cycle will be non-variational
 SAD guess density has 222.000000 electrons

 -----------------------------------------------------------------------
  General SCF calculation program by
  Eric Jon Sundstrom, Paul Horn, Yuezhi Mao, Dmitri Zuev, Alec White,
  David Stuck, Shaama M.S., Shane Yost, Joonho Lee, David Small,
  Daniel Levine, Susi Lehtola, Hugh Burton, Evgeny Epifanovsky,
  Bang C. Huynh
 -----------------------------------------------------------------------
 Exchange:     0.2000 Hartree-Fock + 0.0800 Slater + 0.7200 B88
 Correlation:  0.1900 VWN1RPA + 0.8100 LYP
 Using SG-1 standard quadrature grid
 A restricted SCF calculation will be
 performed using DIIS
 SCF converges when DIIS error is below 1.0e-05
 ---------------------------------------
  Cycle       Energy         DIIS error
 ---------------------------------------
    1   -1597.9445856291      3.64e-02  
    2   -1589.9774591853      4.18e-03  
    3   -1589.3900084333      6.43e-03  
    4   -1590.4008315049      1.52e-03  
    5   -1590.4587094769      5.48e-04  
    6   -1590.4661018797      2.08e-04  
    7   -1590.4673132392      6.98e-05  
    8   -1590.4674480956      2.47e-05  
    9   -1590.4674645321      6.30e-06  Convergence criterion met
 ---------------------------------------
 SCF time:   CPU 213.52s  wall 214.00s 
 SCF   energy in the final basis set =    -1590.4674645321
 Total energy in the final basis set =    -1590.4674645321
 
 --------------------------------------------------------------
 
                    Orbital Energies (a.u.)
 --------------------------------------------------------------
 
 Alpha MOs
 -- Occupied --
-24.7458 -24.7350 -24.7242 -24.7171 -24.7167 -19.1924 -19.1356 -14.3801
-10.4276 -10.3573 -10.3163 -10.2453 -10.2428 -10.2361 -10.2352 -10.2143
-10.2093 -10.2082 -10.2050 -10.2034 -10.2029 -10.2014 -10.2009 -10.1995
-10.1992 -10.1985 -10.1974 -10.1969 -10.1950 -10.1944 -10.1943  -1.3035
 -1.2866  -1.2257  -1.2144  -1.2078  -1.1102  -1.0196  -0.9948  -0.8804
 -0.8772  -0.8610  -0.8119  -0.7885  -0.7833  -0.7776  -0.7585  -0.7553
 -0.7318  -0.7200  -0.6970  -0.6578  -0.6518  -0.6337  -0.6271  -0.6215
 -0.6202  -0.5972  -0.5825  -0.5774  -0.5754  -0.5734  -0.5621  -0.5490
 -0.5370  -0.5235  -0.5202  -0.5103  -0.5010  -0.4951  -0.4863  -0.4816
 -0.4747  -0.4670  -0.4609  -0.4556  -0.4546  -0.4516  -0.4493  -0.4458
 -0.4421  -0.4419  -0.4335  -0.4281  -0.4237  -0.4162  -0.4139  -0.4099
 -0.4078  -0.4006  -0.3948  -0.3927  -0.3870  -0.3852  -0.3773  -0.3737
 -0.3713  -0.3666  -0.3595  -0.3523  -0.3508  -0.3329  -0.3075  -0.2958
 -0.2836  -0.2730  -0.2686  -0.2618  -0.2589  -0.2401  -0.1914
 -- Virtual --
 -0.0461  -0.0356  -0.0257  -0.0157  -0.0042   0.0075   0.0441   0.0652
  0.0831   0.0915   0.0989   0.1137   0.1181   0.1277   0.1341   0.1381
  0.1425   0.1453   0.1499   0.1557   0.1569   0.1596   0.1646   0.1730
  0.1762   0.1785   0.1793   0.1824   0.1845   0.1890   0.2001   0.2098
  0.2288   0.2398   0.2439   0.2534   0.2636   0.2721   0.2826   0.2870
  0.2919   0.2942   0.3064   0.3126   0.3205   0.3301   0.3458   0.3621
  0.3687   0.3827   0.3907   0.4092   0.4142   0.4226   0.4377   0.4439
  0.4753   0.4790   0.4908   0.4932   0.4975   0.5016   0.5136   0.5153
  0.5195   0.5280   0.5336   0.5357   0.5429   0.5485   0.5506   0.5542
  0.5626   0.5680   0.5702   0.5728   0.5759   0.5795   0.5818   0.5879
  0.5883   0.5913   0.5945   0.5973   0.6012   0.6043   0.6059   0.6120
  0.6164   0.6305   0.6318   0.6432   0.6474   0.6506   0.6574   0.6599
  0.6727   0.6841   0.6939   0.6945   0.7129   0.7257   0.7287   0.7335
  0.7573   0.7756   0.7791   0.7901   0.8038   0.8091   0.8101   0.8185
  0.8220   0.8266   0.8314   0.8350   0.8389   0.8414   0.8436   0.8515
  0.8656   0.8694   0.8748   0.8787   0.8813   0.8855   0.8948   0.9053
  0.9169   0.9218   0.9372   0.9463   0.9596   0.9673   0.9755   0.9764
  0.9806   0.9961   1.0001   1.0067   1.0159   1.0257   1.0342   1.0535
  1.0649   1.0704   1.0838   1.0887   1.0943   1.1042   1.1069   1.1213
  1.1273   1.1408   1.1449   1.1532   1.1595   1.1642   1.1663   1.1727
  1.1870   1.1889   1.1956   1.2116   1.2139   1.2179   1.2281   1.2372
  1.2517   1.2647   1.2694   1.2829   1.2944   1.3012   1.3101   1.3249
  1.3343   1.3399   1.3420   1.3515   1.3608   1.3743   1.3837   1.3888
  1.3996   1.4012   1.4031   1.4124   1.4264   1.4364   1.4382   1.4494
  1.4518   1.4568   1.4628   1.4662   1.4715   1.4764   1.4806   1.4851
  1.4954   1.4991   1.5051   1.5156   1.5185   1.5391   1.5684   1.5943
  1.6086   1.6283   1.6419   1.6611   1.6777   1.6819   1.6962   1.7046
  1.7145   1.7261   1.7373   1.7507   1.7567   1.7637   1.7798   1.7817
  1.7919   1.7961   1.7983   1.8173   1.8207   1.8282   1.8353   1.8373
  1.8494   1.8596   1.8649   1.8699   1.8786   1.8860   1.8970   1.9013
  1.9053   1.9217   1.9295   1.9363   1.9426   1.9551   1.9669   1.9710
  1.9781   1.9808   1.9884   1.9950   2.0037   2.0117   2.0166   2.0207
  2.0295   2.0361   2.0398   2.0445   2.0535   2.0613   2.0722   2.0731
  2.0841   2.0954   2.0971   2.1022   2.1133   2.1240   2.1347   2.1388
  2.1463   2.1573   2.1595   2.1733   2.1756   2.1952   2.1992   2.2069
  2.2232   2.2342   2.2378   2.2554   2.2673   2.2843   2.2865   2.2964
  2.3009   2.3058   2.3139   2.3243   2.3261   2.3302   2.3500   2.3501
  2.3647   2.4140   2.4200   2.4248   2.4521   2.4658   2.4810   2.4969
  2.5223   2.5241   2.5583   2.5631   2.5736   2.5889   2.6072   2.6179
  2.6285   2.6402   2.6479   2.6578   2.6620   2.6736   2.6778   2.6904
  2.6966   2.7253   2.7429   2.7554   2.7588   2.7676   2.7716   2.7865
  2.7989   2.8060   2.8343   2.8412   2.8634   2.8909   2.9115   2.9344
  2.9348   2.9496   2.9691   2.9921   3.0240   3.0421   3.0490   3.0538
  3.0668   3.1210   3.1331   3.1502   3.1592   3.2459   3.3053   3.3293
  3.4413   3.4710   3.4827   4.0126   4.0758   4.0940   4.1077   4.1112
  4.1163   4.1298   4.1341   4.1630   4.1837   4.2017   4.2368   4.2854
  4.3100   4.3170   4.3423   4.3595   4.3638   4.4007   4.4435   4.4794
  4.5059   4.5359   4.5569   4.7157   4.7614   4.7907   4.8226   4.8555
  5.2897   5.6541
 --------------------------------------------------------------
 
          Ground-State Mulliken Net Atomic Charges

     Atom                 Charge (a.u.)
  ----------------------------------------
      1 C                    -0.225184
      2 O                    -0.437467
      3 C                     0.538820
      4 C                     0.071981
      5 C                     0.253969
      6 N                    -0.649600
      7 C                     0.292218
      8 C                    -0.210460
      9 C                    -0.012958
     10 C                     0.777359
     11 F                    -0.267296
     12 F                    -0.265496
     13 F                    -0.270162
     14 C                    -0.171191
     15 C                    -0.126737
     16 C                    -0.168656
     17 C                     0.287286
     18 C                    -0.171497
     19 C                    -0.204887
     20 C                     0.201081
     21 C                    -0.300483
     22 C                     0.542269
     23 F                    -0.234861
     24 F                    -0.248322
     25 C                    -0.206553
     26 C                    -0.168929
     27 C                    -0.167295
     28 C                    -0.129296
     29 C                    -0.133223
     30 C                    -0.172148
     31 O                    -0.482330
     32 H                     0.169566
     33 H                     0.162345
     34 H                     0.180336
     35 H                     0.169802
     36 H                     0.149842
     37 H                     0.144543
     38 H                     0.157473
     39 H                     0.151090
     40 H                     0.144833
     41 H                     0.159223
     42 H                     0.132725
     43 H                     0.152042
     44 H                     0.153102
     45 H                     0.139031
     46 H                     0.136314
     47 H                     0.157780
  ----------------------------------------
  Sum of atomic charges =     0.000000

 -----------------------------------------------------------------
                    Cartesian Multipole Moments
 -----------------------------------------------------------------
    Charge (ESU x 10^10)
                 0.0000
    Dipole Moment (Debye)
         X      -0.3975      Y       3.1357      Z      -0.2645
       Tot       3.1719
    Quadrupole Moments (Debye-Ang)
        XX    -182.1553     XY      -3.6458     YY    -167.5680
        XZ      -4.1834     YZ       1.4613     ZZ    -164.6669
    Octopole Moments (Debye-Ang^2)
       XXX     -30.8748    XXY     -28.9397    XYY      -1.9880
       YYY      17.0874    XXZ       6.5310    XYZ      -2.1966
       YYZ      -6.9202    XZZ      -3.3790    YZZ     -33.7346
       ZZZ      29.2066
    Hexadecapole Moments (Debye-Ang^3)
      XXXX  -10250.4094   XXXY    -205.6791   XXYY   -2455.0588
      XYYY     134.9307   YYYY   -5783.3820   XXXZ     -54.2182
      XXYZ      54.7313   XYYZ      -4.2330   YYYZ     -51.9317
      XXZZ   -1666.8565   XYZZ     -51.2991   YYZZ   -1194.2015
      XZZZ      77.1337   YZZZ      -6.3750   ZZZZ   -1196.4466
 -----------------------------------------------------------------
Archival summary:
1\1\nia1977.scinet.local\SP\ProcedureUnspecified\6-31G*\5212316\rhickman\MonFeb715:05:252022MonFeb715:05:252022\0\\#,ProcedureUnspecified,6-31G*,\\0,1\O\C,1,1.34003\O,2,1.20433,1,123.76\C,1,1.42098,2,116.252,3,-1.72217,0\H,4,1.08677,1,106.613,2,-164.775,0\H,4,1.0915,1,110.187,2,-44.7296,0\H,4,1.09163,1,110.057,2,75.4141,0\C,2,1.48924,1,111.959,3,-177.405,0\C,8,1.39099,2,117.149,1,135.133,0\H,9,1.0794,8,118.303,2,2.26774,0\C,9,1.38178,8,120.804,2,-176.758,0\H,11,1.07863,9,120.15,8,179.307,0\C,11,1.38669,9,119.504,8,-0.642443,0\H,13,1.07951,11,120.125,9,179.952,0\C,13,1.38087,11,120.318,9,-1.30481,0\H,15,1.07998,13,120.324,11,-178.089,0\C,15,1.39482,13,120.758,11,1.29235,0\N,17,1.4014,15,119.457,13,-177.416,0\C,18,1.39125,17,120.093,15,137.554,0\C,19,1.39422,18,120.507,17,146.611,0\H,20,1.07933,19,120.181,18,0.130931,0\C,20,1.38533,19,119.824,18,-178.558,0\C,22,1.3876,20,121.377,19,0.0608522,0\H,23,1.07793,22,120.421,20,179.497,0\C,23,1.38577,22,118.604,20,-0.410646,0\H,25,1.0785,23,119.677,22,-179.732,0\C,25,1.38022,23,120.789,22,0.233338,0\H,27,1.07961,25,119.868,23,-179.783,0\C,18,1.39921,17,119.057,15,-43.6117,0\C,29,1.39499,18,120.272,17,-36.3923,0\H,30,1.07958,29,119.435,18,-1.20944,0\C,30,1.37711,29,120.256,18,179.389,0\H,32,1.07996,30,119.309,29,179.57,0\C,29,1.39529,18,120.875,17,142.946,0\H,34,1.07978,29,119.561,18,0.0366042,0\C,34,1.37818,29,120.69,18,-179.532,0\H,36,1.07719,34,118.751,29,179.855,0\C,36,1.39742,34,120.815,29,0.248788,0\C,38,1.45171,36,123.687,34,179.851,0\H,39,1.08056,38,116.47,36,178.117,0\C,39,1.32564,38,128.526,36,-2.05695,0\F,41,1.32761,39,128.074,38,-0.198544,0\F,41,1.33195,39,123.031,38,-179.887,0\C,22,1.5011,20,117.367,19,178.183,0\F,44,1.33798,22,113.747,20,176.304,0\F,44,1.34566,22,112.336,20,55.2109,0\F,44,1.35056,22,111.714,20,-63.3985,0\\\@

 Total job time:  214.64s(wall), 214.11s(cpu) 
 Mon Feb  7 15:05:25 2022

        *************************************************************
        *                                                           *
        *  Thank you very much for using Q-Chem.  Have a nice day.  *
        *                                                           *
        *************************************************************


