20
 energy: -39.126320200721 gnorm: 0.000189481122 xtb: 6.4.1 (23d549d)
C        -1.83622077810000    3.20675123390000   -0.07744530420000
C        -2.37756290480000    2.00289930610000    0.06186251980000
C        -1.67254052810000    0.72532386970000    0.03865935190000
C        -2.42368530240000   -0.45093256790000    0.01795282460000
C        -1.77159304300000   -1.66714296230000   -0.00858208270000
F        -2.50399756970000   -2.80008285290000   -0.03124817630000
C        -0.39548041120000   -1.76650490340000   -0.01013506440000
C         0.36740218300000   -0.59648816410000    0.01543522080000
C         1.81600046880000   -0.73706279290000    0.01685198670000
C         2.73721238930000    0.21492745050000   -0.00175569450000
F         2.55578350200000    1.52906543590000   -0.02727542190000
F         4.04277879540000   -0.03860022140000   -0.00119447600000
C        -0.28179850680000    0.63533684660000    0.04098557840000
H        -2.44247844480000    4.09564574980000   -0.05069301730000
H        -0.78178246040000    3.36125848440000   -0.22844161870000
H        -3.44900019790000    1.92038124380000    0.19470174030000
H        -3.50225531480000   -0.42354105480000    0.01863234620000
H         0.07068210680000   -2.73871611400000   -0.02940206650000
H         2.20147894910000   -1.74607913630000    0.03010153400000
H         0.29668764560000    1.54168061880000    0.07260549920000
