
Running Job 1 of 1 fragments/C114/conf-2/spe_input.inp
qchem fragments/C114/conf-2/spe_input.inp_248369.0 /gpfs/fs0/scratch/a/aspuru/rhickman/descriptor_computation/qchem248369/ 0
/scinet/niagara/software/commercial/qc52/exe/qcprog.exe_s fragments/C114/conf-2/spe_input.inp_248369.0 /gpfs/fs0/scratch/a/aspuru/rhickman/descriptor_computation/qchem248369/
                  Welcome to Q-Chem
     A Quantum Leap Into The Future Of Chemistry


 Q-Chem 5.2, Q-Chem, Inc., Pleasanton, CA (2019)

 License issued to: SRG Alan Aspuru-Guzik, University of Toronto

 Yihan Shao,  Zhengting Gan,  E. Epifanovsky,  A. T. B. Gilbert,  M. Wormit,  
 J. Kussmann,  A. W. Lange,  A. Behn,  Jia Deng,  Xintian Feng,  D. Ghosh,  
 M. Goldey,  P. R. Horn,  L. D. Jacobson,  I. Kaliman,  T. Kus,  A. Landau,  
 Jie Liu,  E. I. Proynov,  R. M. Richard,  R. P. Steele,  E. J. Sundstrom,  
 H. L. Woodcock III,  P. M. Zimmerman,  D. Zuev,  B. Albrecht,  E. Alguire,  
 S. A. Baeppler,  D. Barton,  Z. Benda,  Y. A. Bernard,  E. J. Berquist,  
 K. B. Bravaya,  H. Burton,  D. Casanova,  Chun-Min Chang,  Yunqing Chen,  
 A. Chien,  K. D. Closser,  M. P. Coons,  S. Coriani,  S. Dasgupta,  
 A. L. Dempwolff,  M. Diedenhofen,  Hainam Do,  R. G. Edgar,  Po-Tung Fang,  
 S. Faraji,  S. Fatehi,  Qingguo Feng,  K. D. Fenk,  J. Fosso-Tande,  
 J. Gayvert,  Qinghui Ge,  A. Ghysels,  G. Gidofalvi,  J. Gomes,  
 J. Gonthier,  A. Gunina,  D. Hait,  M. W. D. Hanson-Heine,  
 P. H. P. Harbach,  A. W. Hauser,  M. F. Herbst,  J. E. Herr,  
 E. G. Hohenstein,  Z. C. Holden,  Kerwin Hui,  B. C. Huynh,  T.-C. Jagau,  
 Hyunjun Ji,  B. Kaduk,  K. Khistyaev,  Jaehoon Kim,  P. Klunzinger,  K. Koh,  
 D. Kosenkov,  L. Koulias,  T. Kowalczyk,  C. M. Krauter,  A. Kunitsa,  
 Ka Un Lao,  A. Laurent,  K. V. Lawler,  Joonho Lee,  D. Lefrancois,  
 S. Lehtola,  D. S. Levine,  Yi-Pei Li,  You-Sheng Lin,  Fenglai Liu,  
 E. Livshits,  A. Luenser,  P. Manohar,  E. Mansoor,  S. F. Manzer,  
 Shan-Ping Mao,  Yuezhi Mao,  N. Mardirossian,  A. V. Marenich,  
 T. Markovich,  L. A. Martinez-Martinez,  S. A. Maurer,  N. J. Mayhall,  
 S. C. McKenzie,  J.-M. Mewes,  P. Morgante,  A. F. Morrison,  
 J. W. Mullinax,  K. Nanda,  T. S. Nguyen-Beck,  R. Olivares-Amaya,  
 J. A. Parkhill,  Zheng Pei,  T. M. Perrine,  F. Plasser,  P. Pokhilko,  
 S. Prager,  A. Prociuk,  E. Ramos,  D. R. Rehn,  F. Rob,  M. Scheurer,  
 M. Schneider,  N. Sergueev,  S. M. Sharada,  S. Sharma,  D. W. Small,  
 T. Stauch,  T. Stein,  Yu-Chuan Su,  A. J. W. Thom,  A. Tkatchenko,  
 T. Tsuchimochi,  N. M. Tubman,  L. Vogt,  M. L. Vidal,  O. Vydrov,  
 M. A. Watson,  J. Wenzel,  M. de Wergifosse,  T. A. Wesolowski,  A. White,  
 J. Witte,  A. Yamada,  Jun Yang,  K. Yao,  S. Yeganeh,  S. R. Yost,  
 Zhi-Qiang You,  A. Zech,  Igor Ying Zhang,  Xing Zhang,  Yan Zhao,  
 Ying Zhu,  B. R. Brooks,  G. K. L. Chan,  C. J. Cramer,  M. S. Gordon,  
 W. J. Hehre,  A. Klamt,  M. W. Schmidt,  C. D. Sherrill,  D. G. Truhlar,  
 A. Aspuru-Guzik,  R. Baer,  A. T. Bell,  N. A. Besley,  Jeng-Da Chai,  
 A. E. DePrince, III,  R. A. DiStasio Jr.,  A. Dreuw,  B. D. Dunietz,  
 T. R. Furlani,  Chao-Ping Hsu,  Yousung Jung,  Jing Kong,  D. S. Lambrecht,  
 WanZhen Liang,  C. Ochsenfeld,  V. A. Rassolov,  L. V. Slipchenko,  
 J. E. Subotnik,  T. Van Voorhis,  J. M. Herbert,  A. I. Krylov,  
 P. M. W. Gill,  M. Head-Gordon

 Contributors to earlier versions of Q-Chem not listed above: 
 R. D. Adamson,  B. Austin,  J. Baker,  G. J. O. Beran,  K. Brandhorst,  
 S. T. Brown,  E. F. C. Byrd,  A. K. Chakraborty,  C.-L. Cheng,  
 Siu Hung Chien,  D. M. Chipman,  D. L. Crittenden,  H. Dachsel,  
 R. J. Doerksen,  A. D. Dutoi,  L. Fusti-Molnar,  W. A. Goddard III,  
 A. Golubeva-Zadorozhnaya,  S. R. Gwaltney,  G. Hawkins,  A. Heyden,  
 S. Hirata,  G. Kedziora,  F. J. Keil,  C. Kelley,  Jihan Kim,  R. A. King,  
 R. Z. Khaliullin,  P. P. Korambath,  W. Kurlancheek,  A. M. Lee,  M. S. Lee,  
 S. V. Levchenko,  Ching Yeh Lin,  D. Liotard,  R. C. Lochan,  I. Lotan,  
 P. E. Maslen,  N. Nair,  D. P. O'Neill,  D. Neuhauser,  E. Neuscamman,  
 C. M. Oana,  R. Olson,  B. Peters,  R. Peverati,  P. A. Pieniazek,  
 Y. M. Rhee,  J. Ritchie,  M. A. Rohrdanz,  E. Rosta,  N. J. Russ,  
 H. F. Schaefer III,  N. E. Schultz,  N. Shenvi,  A. C. Simmonett,  A. Sodt,  
 D. Stuck,  K. S. Thanthiriwatte,  V. Vanovschi,  Tao Wang,  A. Warshel,  
 C. F. Williams,  Q. Wu,  X. Xu,  W. Zhang

 Please cite Q-Chem as follows:
 Y. Shao et al., Mol. Phys. 113, 184-215 (2015)
 DOI: 10.1080/00268976.2014.952696

 Q-Chem 5.2.1 for Intel X86 EM64T Linux

 Parts of Q-Chem use Armadillo 8.300.2 (Tropical Shenanigans).
 http://arma.sourceforge.net/

 Q-Chem begins on Mon Feb  7 08:22:03 2022  

Host: 
0

     Scratch files written to /gpfs/fs0/scratch/a/aspuru/rhickman/descriptor_computation/qchem248369//
 Jul1719 |scratch|qcdevops|jenkins|workspace|build_RNUM -1
Processing $rem in /scinet/niagara/software/commercial/qc52/config/preferences:
	 MEM_TOTAL  4000 
NAlpha2: 96
NElect   96
Mult     1

Checking the input file for inconsistencies... 	...done.

--------------------------------------------------------------
User input:
--------------------------------------------------------------
$molecule
0 1
C         2.80719964340000    2.38261273380000   -0.22022201270000
C         2.57411968890000    1.13681757600000    0.17457540060000
C         1.29394208400000    0.47068336250000    0.08339942830000
C         0.03959471910000    1.05321762370000    0.03498964170000
N        -0.87162716680000    0.06183907110000    0.05049913560000
C        -2.31892646590000    0.20329933240000   -0.00632603980000
C        -2.69791804250000    0.80724324930000   -1.36280582390000
C        -2.94463855190000   -1.18080116030000    0.14686348930000
C        -2.77690276690000    1.11541647730000    1.13605776900000
N        -0.29406206580000   -1.12974994300000    0.09917625670000
C         1.01841512750000   -0.92543896980000    0.11443283390000
C         1.91679028770000   -2.05964493440000    0.13020193830000
C         3.16383223450000   -2.06536906750000   -0.32412896170000
H         3.77559697470000    2.83947403480000   -0.10911581190000
H         2.04327173320000    2.98812344590000   -0.67873608380000
H         3.37008578570000    0.55115713770000    0.61581557080000
H        -0.23688257740000    2.08743156390000    0.01651282310000
H        -2.34792165600000    0.16587665740000   -2.16845792570000
H        -2.25299267860000    1.79169366910000   -1.48758653180000
H        -3.77762970760000    0.90399927750000   -1.43903915860000
H        -2.59485373200000   -1.84007649380000   -0.64174967840000
H        -4.02732634860000   -1.10416376620000    0.09664196680000
H        -2.66171733460000   -1.61742890030000    1.10032586570000
H        -2.38228775700000    2.12161280960000    1.01962539290000
H        -2.43918075210000    0.71984182290000    2.09129538340000
H        -3.86202491140000    1.17356170040000    1.14877766230000
H         1.47103065720000   -2.96686828940000    0.51691322810000
H         3.61937521770000   -1.19693393250000   -0.76825492080000
H         3.76940935510000   -2.95507815950000   -0.28517503240000
$end

$rem
BASIS = 6-31G*
GUI = 2
METHOD = B3LYP
PRINT_ORBITALS false
MOLDEN_FORMAT false
--------------------------------------------------------------
 ----------------------------------------------------------------
             Standard Nuclear Orientation (Angstroms)
    I     Atom           X                Y                Z
 ----------------------------------------------------------------
    1      C      -2.6516320644    -2.5914778268    -0.1297863520
    2      C      -2.5155167435    -1.3237135994     0.2395959987
    3      C      -1.2953976118    -0.5574348492     0.1170042795
    4      C       0.0015157742    -1.0367722827     0.0593130439
    5      N       0.8288919843     0.0255806207     0.0434316083
    6      C       2.2819688282     0.0013215195    -0.0333443562
    7      C       2.6899346551    -0.5949345780    -1.3848112721
    8      C       2.7946874449     1.4343577428     0.0860022950
    9      C       2.8288562784    -0.8490756509     1.1175159804
   10      N       0.1567182890     1.1669214602     0.0802948438
   11      C      -1.1343555634     0.8568123856     0.1194456984
   12      C      -2.1220139475     1.9142536224     0.1293809974
   13      C      -3.3716104592     1.8100271751    -0.3055998703
   14      H      -3.5778469241    -3.1234735926     0.0042538150
   15      H      -1.8473294686    -3.1412528499    -0.5894699239
   16      H      -3.3503692307    -0.7966481419     0.6828525747
   17      H       0.3612125317    -2.0452242070     0.0545673699
   18      H       2.2774821286     0.0007132408    -2.1959897199
   19      H       2.3251542753    -1.6144760233    -1.4855185180
   20      H       3.7727653791    -0.6049171574    -1.4760718952
   21      H       2.3812227633     2.0481862892    -0.7084570096
   22      H       3.8792065309     1.4451500998     0.0203499250
   23      H       2.4904678615     1.8641944238     1.0359862814
   24      H       2.5161057027    -1.8860379552     1.0247538102
   25      H       2.4734005146    -0.4645748247     2.0708389483
   26      H       3.9151745763    -0.8184855866     1.1144281522
   27      H      -1.7464237069     2.8617826437     0.4932796241
   28      H      -3.7609222631     0.8992858607    -0.7274214421
   29      H      -4.0471921294     2.6480812649    -0.2727658121
 ----------------------------------------------------------------
 Molecular Point Group                 C1    NOp =  1
 Largest Abelian Subgroup              C1    NOp =  1
 Nuclear Repulsion Energy =         792.86233021 hartrees
 There are       48 alpha and       48 beta electrons
 Requested basis set is 6-31G(d)
 There are 84 shells and 227 basis functions

 Total QAlloc Memory Limit   4000 MB
 Mega-Array Size       188 MB
 MEM_STATIC part       192 MB
 A cutoff of  1.0D-08 yielded   2416 shell pairs
 There are     19424 function pairs
 Smallest overlap matrix eigenvalue = 7.17E-04

 Scale SEOQF with 1.000000e-01/1.000000e-01/1.000000e-01

 Standard Electronic Orientation quadrupole field applied
 Nucleus-field energy     =     0.0000000276 hartrees
 Guess from superposition of atomic densities
 Warning:  Energy on first SCF cycle will be non-variational
 SAD guess density has 96.000000 electrons

 -----------------------------------------------------------------------
  General SCF calculation program by
  Eric Jon Sundstrom, Paul Horn, Yuezhi Mao, Dmitri Zuev, Alec White,
  David Stuck, Shaama M.S., Shane Yost, Joonho Lee, David Small,
  Daniel Levine, Susi Lehtola, Hugh Burton, Evgeny Epifanovsky,
  Bang C. Huynh
 -----------------------------------------------------------------------
 Exchange:     0.2000 Hartree-Fock + 0.0800 Slater + 0.7200 B88
 Correlation:  0.1900 VWN1RPA + 0.8100 LYP
 Using SG-1 standard quadrature grid
 A restricted SCF calculation will be
 performed using DIIS
 SCF converges when DIIS error is below 1.0e-05
 ---------------------------------------
  Cycle       Energy         DIIS error
 ---------------------------------------
    1    -541.1929465630      5.44e-02  
    2    -538.0095493474      6.00e-03  
    3    -537.9623275807      6.72e-03  
    4    -538.2375397864      1.74e-03  
    5    -538.2548587076      4.29e-04  
    6    -538.2557958107      1.81e-04  
    7    -538.2559871606      5.30e-05  
    8    -538.2560026781      1.72e-05  
    9    -538.2560044069      4.16e-06  Convergence criterion met
 ---------------------------------------
 SCF time:   CPU 44.79s  wall 45.00s 
 SCF   energy in the final basis set =     -538.2560044069
 Total energy in the final basis set =     -538.2560044069
 
 --------------------------------------------------------------
 
                    Orbital Energies (a.u.)
 --------------------------------------------------------------
 
 Alpha MOs
 -- Occupied --
-14.4062 -14.3348 -10.2428 -10.2102 -10.1986 -10.1852 -10.1846 -10.1838
-10.1830 -10.1787 -10.1738 -10.1717 -10.1708  -1.0560  -0.8697  -0.8049
 -0.7968  -0.7555  -0.7301  -0.7038  -0.6948  -0.6320  -0.6261  -0.5569
 -0.5507  -0.5401  -0.5028  -0.4750  -0.4707  -0.4560  -0.4470  -0.4331
 -0.4238  -0.4146  -0.4011  -0.3956  -0.3921  -0.3844  -0.3755  -0.3587
 -0.3485  -0.3433  -0.3409  -0.2992  -0.2923  -0.2736  -0.2245  -0.2070
 -- Virtual --
 -0.0094   0.0041   0.0648   0.0756   0.1071   0.1213   0.1237   0.1290
  0.1451   0.1474   0.1541   0.1548   0.1593   0.1782   0.1841   0.1896
  0.1955   0.2041   0.2080   0.2139   0.2236   0.2281   0.2455   0.2505
  0.2646   0.2998   0.3398   0.3413   0.3539   0.3668   0.3678   0.4332
  0.4621   0.4883   0.4914   0.5008   0.5158   0.5254   0.5467   0.5490
  0.5586   0.5653   0.5716   0.5919   0.6152   0.6222   0.6312   0.6380
  0.6551   0.6660   0.6727   0.6883   0.6927   0.6972   0.7072   0.7193
  0.7195   0.7368   0.7948   0.7960   0.8360   0.8517   0.8560   0.8653
  0.8701   0.8810   0.8831   0.8890   0.8948   0.9001   0.9065   0.9070
  0.9241   0.9339   0.9458   0.9485   0.9634   0.9728   0.9835   0.9883
  0.9930   1.0053   1.0224   1.0484   1.0718   1.0914   1.1117   1.1502
  1.1652   1.1848   1.2298   1.2590   1.2746   1.2977   1.3250   1.3580
  1.3665   1.4350   1.4439   1.4552   1.4798   1.4847   1.5070   1.5260
  1.5866   1.6154   1.6177   1.6664   1.6830   1.6998   1.7206   1.7337
  1.7629   1.8320   1.8567   1.8667   1.8750   1.8889   1.9065   1.9249
  1.9531   1.9936   2.0104   2.0245   2.0410   2.0654   2.0822   2.1023
  2.1288   2.1382   2.1455   2.1534   2.2069   2.2197   2.2359   2.2433
  2.2557   2.2605   2.2706   2.2815   2.3024   2.3129   2.3386   2.3576
  2.3779   2.4155   2.4659   2.4805   2.4915   2.5531   2.5834   2.5928
  2.6485   2.6772   2.6971   2.7284   2.7431   2.7657   2.7890   2.8174
  2.9093   2.9663   3.0264   3.1866   3.2344   3.2990   3.8976   4.0957
  4.1139   4.1296   4.1833   4.2132   4.2586   4.2983   4.3212   4.3458
  4.4360   4.6751   4.7403
 --------------------------------------------------------------
 
          Ground-State Mulliken Net Atomic Charges

     Atom                 Charge (a.u.)
  ----------------------------------------
      1 C                    -0.357826
      2 C                    -0.115919
      3 C                    -0.017886
      4 C                     0.030614
      5 N                    -0.221849
      6 C                     0.168091
      7 C                    -0.435429
      8 C                    -0.436838
      9 C                    -0.442373
     10 N                    -0.378882
     11 C                     0.268554
     12 C                    -0.088223
     13 C                    -0.359400
     14 H                     0.138153
     15 H                     0.130557
     16 H                     0.137781
     17 H                     0.156948
     18 H                     0.164406
     19 H                     0.145559
     20 H                     0.150283
     21 H                     0.172076
     22 H                     0.139067
     23 H                     0.163191
     24 H                     0.146383
     25 H                     0.163532
     26 H                     0.152286
     27 H                     0.138443
     28 H                     0.148558
     29 H                     0.140145
  ----------------------------------------
  Sum of atomic charges =     0.000000

 -----------------------------------------------------------------
                    Cartesian Multipole Moments
 -----------------------------------------------------------------
    Charge (ESU x 10^10)
                 0.0000
    Dipole Moment (Debye)
         X       1.9062      Y      -1.3753      Z       0.0122
       Tot       2.3506
    Quadrupole Moments (Debye-Ang)
        XX     -71.0952     XY      -2.1272     YY     -77.4973
        XZ      -0.4506     YZ       1.0462     ZZ     -80.9405
    Octopole Moments (Debye-Ang^2)
       XXX      10.6484    XXY       3.0516    XYY      -2.9774
       YYY      -2.7805    XXZ       0.2648    XYZ      -0.7584
       YYZ      -0.4566    XZZ       9.4806    YZZ       2.6378
       ZZZ       0.6276
    Hexadecapole Moments (Debye-Ang^3)
      XXXX   -2448.5052   XXXY      -3.2134   XXYY    -575.7560
      XYYY     -16.8642   YYYY    -979.0775   XXXZ      -0.8545
      XXYZ      -5.3255   XYYZ      -1.6355   YYYZ      16.1011
      XXZZ    -492.1521   XYZZ       2.4189   YYZZ    -225.4737
      XZZZ      -0.1094   YZZZ       1.4997   ZZZZ    -270.6115
 -----------------------------------------------------------------
Archival summary:
1\1\nia0005.scinet.local\SP\ProcedureUnspecified\6-31G*\21116\rhickman\MonFeb708:22:482022MonFeb708:22:482022\0\\#,ProcedureUnspecified,6-31G*,\\0,1\N\N,1,1.32508\C,2,1.32837,1,107.024\C,1,1.34662,2,111.562,3,-0.0784788,0\H,4,1.07069,1,122.451,2,-178.749,0\C,4,1.38386,1,107.64,2,-0.310892,0\C,6,1.446,4,127.644,1,-175.649,0\H,7,1.08224,6,115.312,4,154.782,0\C,7,1.32748,6,124.682,4,-24.2162,0\H,9,1.0765,7,121.704,6,178.578,0\H,9,1.07725,7,121.977,6,-2.12529,0\C,3,1.44698,2,119.538,1,-178.345,0\H,12,1.08227,3,113.906,2,-23.1108,0\C,12,1.32724,3,125.662,2,154.183,0\H,14,1.07654,12,122.366,3,-0.79018,0\H,14,1.07695,12,121.299,3,-179.456,0\C,1,1.45531,2,121.488,3,178.708,0\C,17,1.52667,1,108.394,2,5.72525,0\H,18,1.08577,17,110.217,1,-58.8891,0\H,18,1.08618,17,110.229,1,60.2735,0\H,18,1.08656,17,109.865,1,-179.371,0\C,17,1.53191,1,109.03,2,125.491,0\H,22,1.08675,17,109.822,1,-176.01,0\H,22,1.08706,17,111.267,1,64.0765,0\H,22,1.08766,17,110.216,1,-56.3848,0\C,17,1.53246,1,108.592,2,-113.957,0\H,26,1.08672,17,110.054,1,178.81,0\H,26,1.08751,17,110.925,1,-61.0696,0\H,26,1.08762,17,110.102,1,59.0314,0\\\@

 Total job time:  45.13s(wall), 44.99s(cpu) 
 Mon Feb  7 08:22:48 2022

        *************************************************************
        *                                                           *
        *  Thank you very much for using Q-Chem.  Have a nice day.  *
        *                                                           *
        *************************************************************


