23
 energy: -38.068003045139 gnorm: 0.000083380528 xtb: 6.5.0 (unknown)
C           -2.28493602240000        3.66307647850000        0.04693839170000
C           -2.67667298570000        2.39955578430000       -0.06066099490000
C           -1.82464222850000        1.21528616620000       -0.03662546360000
C           -2.42588251320000       -0.04445595980000       -0.01510495020000
C           -1.67124414820000       -1.20643233640000        0.01253450220000
C           -2.32777564980000       -2.55286910910000        0.05397048940000
C           -0.28623116260000       -1.11342757410000        0.01442694370000
C            0.34503224430000        0.12963306990000       -0.01265116710000
C            1.79192516130000        0.28931167580000       -0.01768042040000
C            2.72810264500000       -0.64701172050000        0.00160617600000
F            2.57244636270000       -1.96587935390000        0.02938208640000
F            4.03260007870000       -0.37058003090000       -0.00477026010000
C           -0.43543598950000        1.28398694320000       -0.03809312050000
H           -2.99462468650000        4.47209118590000        0.02166504020000
H           -1.25402740650000        3.94770418990000        0.16914841920000
H           -3.73360377960000        2.18760920140000       -0.16808238520000
H           -3.50495785190000       -0.11258074510000       -0.01709104950000
H           -3.38740246240000       -2.47870956970000       -0.17662460250000
H           -2.22211164450000       -2.98829812640000        1.04755265050000
H           -1.85830245590000       -3.22994282190000       -0.65680100350000
H            0.29452123000000       -2.02118209540000        0.03432960480000
H            2.16359370730000        1.30387357230000       -0.03928402050000
H            0.05437030050000        2.24473114570000       -0.06692617650000
