23
 energy: -38.062092274312 gnorm: 0.000032694478 xtb: 6.5.0 (unknown)
C           -4.48202072490000        0.41311981370000        0.19920335140000
C           -3.34060672980000        0.69202799880000       -0.41144766590000
C           -2.07602997840000       -0.00391719480000       -0.13950642320000
C           -2.09869723520000       -1.39296198910000       -0.02290405120000
C           -0.93685380000000       -2.10566120220000        0.19612515410000
C            0.26793323260000       -1.43846252620000        0.29778538700000
C            0.31706221410000       -0.04967646920000        0.19159787750000
C            1.59071097910000        0.65422333470000        0.32573121150000
C            2.78449318260000        0.18537688540000        0.00286609700000
F            3.07864358200000       -0.99178617990000       -0.53773505470000
F            3.91223538080000        0.87944379440000        0.16382417730000
C           -0.86257476600000        0.68125915560000       -0.01964259170000
C           -0.80575224450000        2.17976064290000       -0.09491965070000
H           -5.39696811270000        0.92603573610000       -0.04380920810000
H           -4.54154049110000       -0.32684650350000        0.98019945520000
H           -3.31646003280000        1.45482237800000       -1.17920979960000
H           -3.04054990930000       -1.91060364560000       -0.12593814970000
H           -0.96744340300000       -3.18116384810000        0.28382745900000
H            1.17312327860000       -1.99572130740000        0.47800512670000
H            1.58065735940000        1.65876866290000        0.71951920740000
H           -0.13734276770000        2.49983166740000       -0.89330698250000
H           -0.43386360030000        2.59049405450000        0.84383901570000
H           -1.78777260290000        2.60554384220000       -0.27012057860000
