
Running Job 1 of 1 fragments/C132/conf-0/spe_input.inp
qchem fragments/C132/conf-0/spe_input.inp_245813.0 /gpfs/fs0/scratch/a/aspuru/rhickman/descriptor_computation/qchem245813/ 0
/scinet/niagara/software/commercial/qc52/exe/qcprog.exe_s fragments/C132/conf-0/spe_input.inp_245813.0 /gpfs/fs0/scratch/a/aspuru/rhickman/descriptor_computation/qchem245813/
                  Welcome to Q-Chem
     A Quantum Leap Into The Future Of Chemistry


 Q-Chem 5.2, Q-Chem, Inc., Pleasanton, CA (2019)

 License issued to: SRG Alan Aspuru-Guzik, University of Toronto

 Yihan Shao,  Zhengting Gan,  E. Epifanovsky,  A. T. B. Gilbert,  M. Wormit,  
 J. Kussmann,  A. W. Lange,  A. Behn,  Jia Deng,  Xintian Feng,  D. Ghosh,  
 M. Goldey,  P. R. Horn,  L. D. Jacobson,  I. Kaliman,  T. Kus,  A. Landau,  
 Jie Liu,  E. I. Proynov,  R. M. Richard,  R. P. Steele,  E. J. Sundstrom,  
 H. L. Woodcock III,  P. M. Zimmerman,  D. Zuev,  B. Albrecht,  E. Alguire,  
 S. A. Baeppler,  D. Barton,  Z. Benda,  Y. A. Bernard,  E. J. Berquist,  
 K. B. Bravaya,  H. Burton,  D. Casanova,  Chun-Min Chang,  Yunqing Chen,  
 A. Chien,  K. D. Closser,  M. P. Coons,  S. Coriani,  S. Dasgupta,  
 A. L. Dempwolff,  M. Diedenhofen,  Hainam Do,  R. G. Edgar,  Po-Tung Fang,  
 S. Faraji,  S. Fatehi,  Qingguo Feng,  K. D. Fenk,  J. Fosso-Tande,  
 J. Gayvert,  Qinghui Ge,  A. Ghysels,  G. Gidofalvi,  J. Gomes,  
 J. Gonthier,  A. Gunina,  D. Hait,  M. W. D. Hanson-Heine,  
 P. H. P. Harbach,  A. W. Hauser,  M. F. Herbst,  J. E. Herr,  
 E. G. Hohenstein,  Z. C. Holden,  Kerwin Hui,  B. C. Huynh,  T.-C. Jagau,  
 Hyunjun Ji,  B. Kaduk,  K. Khistyaev,  Jaehoon Kim,  P. Klunzinger,  K. Koh,  
 D. Kosenkov,  L. Koulias,  T. Kowalczyk,  C. M. Krauter,  A. Kunitsa,  
 Ka Un Lao,  A. Laurent,  K. V. Lawler,  Joonho Lee,  D. Lefrancois,  
 S. Lehtola,  D. S. Levine,  Yi-Pei Li,  You-Sheng Lin,  Fenglai Liu,  
 E. Livshits,  A. Luenser,  P. Manohar,  E. Mansoor,  S. F. Manzer,  
 Shan-Ping Mao,  Yuezhi Mao,  N. Mardirossian,  A. V. Marenich,  
 T. Markovich,  L. A. Martinez-Martinez,  S. A. Maurer,  N. J. Mayhall,  
 S. C. McKenzie,  J.-M. Mewes,  P. Morgante,  A. F. Morrison,  
 J. W. Mullinax,  K. Nanda,  T. S. Nguyen-Beck,  R. Olivares-Amaya,  
 J. A. Parkhill,  Zheng Pei,  T. M. Perrine,  F. Plasser,  P. Pokhilko,  
 S. Prager,  A. Prociuk,  E. Ramos,  D. R. Rehn,  F. Rob,  M. Scheurer,  
 M. Schneider,  N. Sergueev,  S. M. Sharada,  S. Sharma,  D. W. Small,  
 T. Stauch,  T. Stein,  Yu-Chuan Su,  A. J. W. Thom,  A. Tkatchenko,  
 T. Tsuchimochi,  N. M. Tubman,  L. Vogt,  M. L. Vidal,  O. Vydrov,  
 M. A. Watson,  J. Wenzel,  M. de Wergifosse,  T. A. Wesolowski,  A. White,  
 J. Witte,  A. Yamada,  Jun Yang,  K. Yao,  S. Yeganeh,  S. R. Yost,  
 Zhi-Qiang You,  A. Zech,  Igor Ying Zhang,  Xing Zhang,  Yan Zhao,  
 Ying Zhu,  B. R. Brooks,  G. K. L. Chan,  C. J. Cramer,  M. S. Gordon,  
 W. J. Hehre,  A. Klamt,  M. W. Schmidt,  C. D. Sherrill,  D. G. Truhlar,  
 A. Aspuru-Guzik,  R. Baer,  A. T. Bell,  N. A. Besley,  Jeng-Da Chai,  
 A. E. DePrince, III,  R. A. DiStasio Jr.,  A. Dreuw,  B. D. Dunietz,  
 T. R. Furlani,  Chao-Ping Hsu,  Yousung Jung,  Jing Kong,  D. S. Lambrecht,  
 WanZhen Liang,  C. Ochsenfeld,  V. A. Rassolov,  L. V. Slipchenko,  
 J. E. Subotnik,  T. Van Voorhis,  J. M. Herbert,  A. I. Krylov,  
 P. M. W. Gill,  M. Head-Gordon

 Contributors to earlier versions of Q-Chem not listed above: 
 R. D. Adamson,  B. Austin,  J. Baker,  G. J. O. Beran,  K. Brandhorst,  
 S. T. Brown,  E. F. C. Byrd,  A. K. Chakraborty,  C.-L. Cheng,  
 Siu Hung Chien,  D. M. Chipman,  D. L. Crittenden,  H. Dachsel,  
 R. J. Doerksen,  A. D. Dutoi,  L. Fusti-Molnar,  W. A. Goddard III,  
 A. Golubeva-Zadorozhnaya,  S. R. Gwaltney,  G. Hawkins,  A. Heyden,  
 S. Hirata,  G. Kedziora,  F. J. Keil,  C. Kelley,  Jihan Kim,  R. A. King,  
 R. Z. Khaliullin,  P. P. Korambath,  W. Kurlancheek,  A. M. Lee,  M. S. Lee,  
 S. V. Levchenko,  Ching Yeh Lin,  D. Liotard,  R. C. Lochan,  I. Lotan,  
 P. E. Maslen,  N. Nair,  D. P. O'Neill,  D. Neuhauser,  E. Neuscamman,  
 C. M. Oana,  R. Olson,  B. Peters,  R. Peverati,  P. A. Pieniazek,  
 Y. M. Rhee,  J. Ritchie,  M. A. Rohrdanz,  E. Rosta,  N. J. Russ,  
 H. F. Schaefer III,  N. E. Schultz,  N. Shenvi,  A. C. Simmonett,  A. Sodt,  
 D. Stuck,  K. S. Thanthiriwatte,  V. Vanovschi,  Tao Wang,  A. Warshel,  
 C. F. Williams,  Q. Wu,  X. Xu,  W. Zhang

 Please cite Q-Chem as follows:
 Y. Shao et al., Mol. Phys. 113, 184-215 (2015)
 DOI: 10.1080/00268976.2014.952696

 Q-Chem 5.2.1 for Intel X86 EM64T Linux

 Parts of Q-Chem use Armadillo 8.300.2 (Tropical Shenanigans).
 http://arma.sourceforge.net/

 Q-Chem begins on Mon Feb  7 08:15:15 2022  

Host: 
0

     Scratch files written to /gpfs/fs0/scratch/a/aspuru/rhickman/descriptor_computation/qchem245813//
 Jul1719 |scratch|qcdevops|jenkins|workspace|build_RNUM -1
Processing $rem in /scinet/niagara/software/commercial/qc52/config/preferences:
	 MEM_TOTAL  4000 
NAlpha2: 80
NElect   80
Mult     1

Checking the input file for inconsistencies... 	...done.

--------------------------------------------------------------
User input:
--------------------------------------------------------------
$molecule
0 1
C        -2.79889013270000   -1.36591428060000    0.18037181970000
C        -1.55114679100000   -1.33015984100000   -0.27132875140000
C        -0.61672787240000   -0.24104848760000   -0.09145166430000
C        -0.87857094970000    1.14675468060000    0.00325908110000
C        -2.18638280650000    1.85306396680000    0.00851047520000
N         0.25453860400000    1.82651304520000    0.05663782670000
N         1.24395076240000    0.94003155530000   -0.00186755010000
C         2.60477172340000    1.38446584280000    0.07166598990000
C         0.78096108780000   -0.33256589660000   -0.09041044690000
C         1.66561406510000   -1.46923835700000   -0.15270323650000
C         1.35108967190000   -2.70099823020000    0.23534313600000
H        -3.44141767090000   -2.20756213440000   -0.01635166750000
H        -3.21746791570000   -0.57570967370000    0.77788286750000
H        -1.16298682980000   -2.16864903810000   -0.83864760720000
H        -2.86753074190000    1.39261829890000   -0.70467940390000
H        -2.03003127290000    2.89638042950000   -0.25261634720000
H        -2.64130966580000    1.81118219150000    0.99805916320000
H         2.58463484340000    2.46499070590000    0.19735051110000
H         3.14550774330000    1.13984475390000   -0.84575636540000
H         3.11737526510000    0.92875100160000    0.92129376830000
H         2.65678561470000   -1.26735199300000   -0.54113177630000
H         0.39477103030000   -2.93513559000000    0.66908689460000
H         2.05321156260000   -3.51216079230000    0.14642028590000
$end

$rem
BASIS = 6-31G*
GUI = 2
METHOD = B3LYP
PRINT_ORBITALS false
MOLDEN_FORMAT false
--------------------------------------------------------------
 ----------------------------------------------------------------
             Standard Nuclear Orientation (Angstroms)
    I     Atom           X                Y                Z
 ----------------------------------------------------------------
    1      C       2.7720843963     1.3912693457     0.1681341646
    2      C       1.5234333674     1.3385957572    -0.2793826884
    3      C       0.6045517779     0.2368197666    -0.0966142193
    4      C       0.8855983404    -1.1473032634    -0.0030951109
    5      C       2.2029236233    -1.8357259855    -0.0023934014
    6      N      -0.2379574578    -1.8424492465     0.0539348450
    7      N      -1.2395484782    -0.9695226001    -0.0010490439
    8      C      -2.5939321980    -1.4324730548     0.0769530169
    9      C      -0.7942430927     0.3092818019    -0.0908598053
   10      C      -1.6945072271     1.4338044432    -0.1499265622
   11      C      -1.3954946013     2.6696665578     0.2373385273
   12      H       3.4024188322     2.2416301517    -0.0305562380
   13      H       3.2033964897     0.6067352264     0.7640588471
   14      H       1.1219795963     2.1718190889    -0.8452066207
   15      H       2.8753337242    -1.3659132081    -0.7177626327
   16      H       2.0599269079    -2.8810294487    -0.2632283493
   17      H       2.6605600234    -1.7878258481     0.9856317189
   18      H      -2.5586511061    -2.5126456585     0.2023263124
   19      H      -3.1410310085    -1.1950791936    -0.8385936747
   20      H      -3.1098401981    -0.9839380347     0.9283994571
   21      H      -2.6841353170     1.2184994051    -0.5350705085
   22      H      -0.4410031909     2.9167365335     0.6679217019
   23      H      -2.1088995174     3.4712016998     0.1509558513
 ----------------------------------------------------------------
 Molecular Point Group                 C1    NOp =  1
 Largest Abelian Subgroup              C1    NOp =  1
 Nuclear Repulsion Energy =         593.35186807 hartrees
 There are       40 alpha and       40 beta electrons
 Requested basis set is 6-31G(d)
 There are 68 shells and 189 basis functions

 Total QAlloc Memory Limit   4000 MB
 Mega-Array Size       188 MB
 MEM_STATIC part       192 MB
 A cutoff of  1.0D-08 yielded   1760 shell pairs
 There are     15031 function pairs
 Smallest overlap matrix eigenvalue = 6.86E-04

 Scale SEOQF with 1.000000e-01/1.000000e-01/1.000000e+00

 Standard Electronic Orientation quadrupole field applied
 Nucleus-field energy     =     0.0000000169 hartrees
 Guess from superposition of atomic densities
 Warning:  Energy on first SCF cycle will be non-variational
 SAD guess density has 80.000000 electrons

 -----------------------------------------------------------------------
  General SCF calculation program by
  Eric Jon Sundstrom, Paul Horn, Yuezhi Mao, Dmitri Zuev, Alec White,
  David Stuck, Shaama M.S., Shane Yost, Joonho Lee, David Small,
  Daniel Levine, Susi Lehtola, Hugh Burton, Evgeny Epifanovsky,
  Bang C. Huynh
 -----------------------------------------------------------------------
 Exchange:     0.2000 Hartree-Fock + 0.0800 Slater + 0.7200 B88
 Correlation:  0.1900 VWN1RPA + 0.8100 LYP
 Using SG-1 standard quadrature grid
 A restricted SCF calculation will be
 performed using DIIS
 SCF converges when DIIS error is below 1.0e-05
 ---------------------------------------
  Cycle       Energy         DIIS error
 ---------------------------------------
    1    -462.2105911036      6.02e-02  
    2    -459.4490000773      6.18e-03  
    3    -459.3987628579      7.22e-03  
    4    -459.6115735940      2.17e-03  
    5    -459.6314791171      4.07e-04  
    6    -459.6320763889      1.72e-04  
    7    -459.6321853447      5.33e-05  
    8    -459.6321956037      2.23e-05  
    9    -459.6321977194      3.35e-06  Convergence criterion met
 ---------------------------------------
 SCF time:   CPU 29.28s  wall 29.00s 
 SCF   energy in the final basis set =     -459.6321977194
 Total energy in the final basis set =     -459.6321977194
 
 --------------------------------------------------------------
 
                    Orbital Energies (a.u.)
 --------------------------------------------------------------
 
 Alpha MOs
 -- Occupied --
-14.4050 -14.3335 -10.2277 -10.2166 -10.2012 -10.1980 -10.1864 -10.1846
-10.1762 -10.1720 -10.1700  -1.0516  -0.8514  -0.8223  -0.7728  -0.7436
 -0.7292  -0.6722  -0.6220  -0.5942  -0.5468  -0.5437  -0.5042  -0.4819
 -0.4603  -0.4515  -0.4346  -0.4248  -0.4197  -0.4062  -0.3867  -0.3862
 -0.3819  -0.3597  -0.3445  -0.3050  -0.2916  -0.2723  -0.2249  -0.2060
 -- Virtual --
 -0.0269   0.0196   0.0624   0.0940   0.1088   0.1193   0.1283   0.1330
  0.1470   0.1644   0.1665   0.1692   0.1740   0.1830   0.2011   0.2131
  0.2242   0.2594   0.2698   0.2983   0.3340   0.3366   0.3416   0.3566
  0.3769   0.4378   0.4598   0.4917   0.5136   0.5179   0.5388   0.5444
  0.5535   0.5652   0.5696   0.5871   0.6113   0.6128   0.6248   0.6406
  0.6702   0.6724   0.6876   0.6974   0.7071   0.7316   0.7522   0.7687
  0.7850   0.7985   0.8159   0.8452   0.8500   0.8569   0.8703   0.8763
  0.8960   0.9033   0.9054   0.9121   0.9276   0.9380   0.9491   0.9717
  0.9750   0.9862   1.0117   1.0288   1.0317   1.0613   1.1278   1.1310
  1.1563   1.2052   1.2172   1.2459   1.2545   1.3280   1.3499   1.3672
  1.3851   1.4189   1.4451   1.4565   1.4886   1.5030   1.5423   1.5931
  1.6429   1.6464   1.6771   1.6985   1.7731   1.8216   1.8359   1.8716
  1.9107   1.9144   1.9256   1.9407   1.9821   2.0039   2.0244   2.0346
  2.0652   2.1037   2.1160   2.1505   2.1648   2.1907   2.2008   2.2295
  2.2372   2.2689   2.2764   2.3051   2.3369   2.3515   2.3626   2.4095
  2.4355   2.4550   2.4835   2.5431   2.5721   2.6055   2.6286   2.7143
  2.7177   2.7418   2.7532   2.7844   2.8593   2.9619   3.0273   3.1788
  3.2769   3.2925   3.8846   4.1088   4.1109   4.1361   4.1747   4.2056
  4.2549   4.3297   4.3924   4.4965   4.7390
 --------------------------------------------------------------
 
          Ground-State Mulliken Net Atomic Charges

     Atom                 Charge (a.u.)
  ----------------------------------------
      1 C                    -0.361092
      2 C                    -0.126192
      3 C                    -0.056153
      4 C                     0.298080
      5 C                    -0.523989
      6 N                    -0.356739
      7 N                    -0.306753
      8 C                    -0.324786
      9 C                     0.333082
     10 C                    -0.112672
     11 C                    -0.350887
     12 H                     0.136618
     13 H                     0.142458
     14 H                     0.134484
     15 H                     0.164693
     16 H                     0.168242
     17 H                     0.161184
     18 H                     0.198016
     19 H                     0.168503
     20 H                     0.173059
     21 H                     0.133682
     22 H                     0.162202
     23 H                     0.144962
  ----------------------------------------
  Sum of atomic charges =     0.000000

 -----------------------------------------------------------------
                    Cartesian Multipole Moments
 -----------------------------------------------------------------
    Charge (ESU x 10^10)
                 0.0000
    Dipole Moment (Debye)
         X      -1.7565      Y       0.9388      Z      -0.0822
       Tot       1.9934
    Quadrupole Moments (Debye-Ang)
        XX     -55.9770     XY       0.6369     YY     -65.7742
        XZ       1.1464     YZ      -0.4433     ZZ     -67.5675
    Octopole Moments (Debye-Ang^2)
       XXX     -21.1188    XXY      -8.9341    XYY      -4.7001
       YYY      12.0101    XXZ       0.9173    XYZ      -0.1964
       YYZ      -0.7567    XZZ      -2.0568    YZZ      -4.8018
       ZZZ       0.4851
    Hexadecapole Moments (Debye-Ang^3)
      XXXX   -1263.4728   XXXY      24.8208   XXYY    -359.9482
      XYYY      -1.7405   YYYY   -1031.3080   XXXZ      15.4255
      XXYZ      -6.4444   XYYZ      -4.8085   YYYZ       3.1234
      XXZZ    -238.7878   XYZZ       1.9161   YYZZ    -200.0128
      XZZZ       2.2540   YZZZ      -1.7529   ZZZZ     -97.0793
 -----------------------------------------------------------------
Archival summary:
1\1\nia0005.scinet.local\SP\ProcedureUnspecified\6-31G*\2912\rhickman\MonFeb708:15:442022MonFeb708:15:442022\0\\#,ProcedureUnspecified,6-31G*,\\0,1\N\N,1,1.32974\C,2,1.32244,1,107.043\C,1,1.35709,2,111.973,3,-0.178178,0\C,4,1.40068,1,106.213,2,0.167781,0\C,1,1.43344,2,119.829,3,-178.352,0\H,6,1.088,1,107.234,2,1.43512,0\H,6,1.09193,1,110.866,2,120.887,0\H,6,1.09266,1,110.936,2,-117.703,0\C,4,1.44171,1,122.195,2,-179.36,0\H,10,1.08354,4,115.461,1,-24.9996,0\C,10,1.32919,4,124.947,1,154.387,0\H,12,1.07587,10,121.986,4,-2.2682,0\H,12,1.07651,10,121.321,4,178.902,0\C,5,1.44626,4,126.556,1,175.008,0\H,15,1.08424,5,114.591,4,-26.2256,0\C,15,1.32747,5,125.821,4,154.388,0\H,17,1.07548,15,122.35,5,-2.93905,0\H,17,1.07699,15,121.309,5,178.526,0\C,3,1.48636,2,120.631,1,-178.256,0\H,20,1.0868,3,109.193,2,17.6204,0\H,20,1.0884,3,110.322,2,138.376,0\H,20,1.08992,3,110.622,2,-101.553,0\\\@

 Total job time:  29.55s(wall), 29.45s(cpu) 
 Mon Feb  7 08:15:44 2022

        *************************************************************
        *                                                           *
        *  Thank you very much for using Q-Chem.  Have a nice day.  *
        *                                                           *
        *************************************************************


