
Running Job 1 of 1 fragments/C064/conf-2/spe_input.inp
qchem fragments/C064/conf-2/spe_input.inp_50289.0 /gpfs/fs0/scratch/a/aspuru/rhickman/descriptor_computation/qchem50289/ 0
/scinet/niagara/software/commercial/qc52/exe/qcprog.exe_s fragments/C064/conf-2/spe_input.inp_50289.0 /gpfs/fs0/scratch/a/aspuru/rhickman/descriptor_computation/qchem50289/
                  Welcome to Q-Chem
     A Quantum Leap Into The Future Of Chemistry


 Q-Chem 5.2, Q-Chem, Inc., Pleasanton, CA (2019)

 License issued to: SRG Alan Aspuru-Guzik, University of Toronto

 Yihan Shao,  Zhengting Gan,  E. Epifanovsky,  A. T. B. Gilbert,  M. Wormit,  
 J. Kussmann,  A. W. Lange,  A. Behn,  Jia Deng,  Xintian Feng,  D. Ghosh,  
 M. Goldey,  P. R. Horn,  L. D. Jacobson,  I. Kaliman,  T. Kus,  A. Landau,  
 Jie Liu,  E. I. Proynov,  R. M. Richard,  R. P. Steele,  E. J. Sundstrom,  
 H. L. Woodcock III,  P. M. Zimmerman,  D. Zuev,  B. Albrecht,  E. Alguire,  
 S. A. Baeppler,  D. Barton,  Z. Benda,  Y. A. Bernard,  E. J. Berquist,  
 K. B. Bravaya,  H. Burton,  D. Casanova,  Chun-Min Chang,  Yunqing Chen,  
 A. Chien,  K. D. Closser,  M. P. Coons,  S. Coriani,  S. Dasgupta,  
 A. L. Dempwolff,  M. Diedenhofen,  Hainam Do,  R. G. Edgar,  Po-Tung Fang,  
 S. Faraji,  S. Fatehi,  Qingguo Feng,  K. D. Fenk,  J. Fosso-Tande,  
 J. Gayvert,  Qinghui Ge,  A. Ghysels,  G. Gidofalvi,  J. Gomes,  
 J. Gonthier,  A. Gunina,  D. Hait,  M. W. D. Hanson-Heine,  
 P. H. P. Harbach,  A. W. Hauser,  M. F. Herbst,  J. E. Herr,  
 E. G. Hohenstein,  Z. C. Holden,  Kerwin Hui,  B. C. Huynh,  T.-C. Jagau,  
 Hyunjun Ji,  B. Kaduk,  K. Khistyaev,  Jaehoon Kim,  P. Klunzinger,  K. Koh,  
 D. Kosenkov,  L. Koulias,  T. Kowalczyk,  C. M. Krauter,  A. Kunitsa,  
 Ka Un Lao,  A. Laurent,  K. V. Lawler,  Joonho Lee,  D. Lefrancois,  
 S. Lehtola,  D. S. Levine,  Yi-Pei Li,  You-Sheng Lin,  Fenglai Liu,  
 E. Livshits,  A. Luenser,  P. Manohar,  E. Mansoor,  S. F. Manzer,  
 Shan-Ping Mao,  Yuezhi Mao,  N. Mardirossian,  A. V. Marenich,  
 T. Markovich,  L. A. Martinez-Martinez,  S. A. Maurer,  N. J. Mayhall,  
 S. C. McKenzie,  J.-M. Mewes,  P. Morgante,  A. F. Morrison,  
 J. W. Mullinax,  K. Nanda,  T. S. Nguyen-Beck,  R. Olivares-Amaya,  
 J. A. Parkhill,  Zheng Pei,  T. M. Perrine,  F. Plasser,  P. Pokhilko,  
 S. Prager,  A. Prociuk,  E. Ramos,  D. R. Rehn,  F. Rob,  M. Scheurer,  
 M. Schneider,  N. Sergueev,  S. M. Sharada,  S. Sharma,  D. W. Small,  
 T. Stauch,  T. Stein,  Yu-Chuan Su,  A. J. W. Thom,  A. Tkatchenko,  
 T. Tsuchimochi,  N. M. Tubman,  L. Vogt,  M. L. Vidal,  O. Vydrov,  
 M. A. Watson,  J. Wenzel,  M. de Wergifosse,  T. A. Wesolowski,  A. White,  
 J. Witte,  A. Yamada,  Jun Yang,  K. Yao,  S. Yeganeh,  S. R. Yost,  
 Zhi-Qiang You,  A. Zech,  Igor Ying Zhang,  Xing Zhang,  Yan Zhao,  
 Ying Zhu,  B. R. Brooks,  G. K. L. Chan,  C. J. Cramer,  M. S. Gordon,  
 W. J. Hehre,  A. Klamt,  M. W. Schmidt,  C. D. Sherrill,  D. G. Truhlar,  
 A. Aspuru-Guzik,  R. Baer,  A. T. Bell,  N. A. Besley,  Jeng-Da Chai,  
 A. E. DePrince, III,  R. A. DiStasio Jr.,  A. Dreuw,  B. D. Dunietz,  
 T. R. Furlani,  Chao-Ping Hsu,  Yousung Jung,  Jing Kong,  D. S. Lambrecht,  
 WanZhen Liang,  C. Ochsenfeld,  V. A. Rassolov,  L. V. Slipchenko,  
 J. E. Subotnik,  T. Van Voorhis,  J. M. Herbert,  A. I. Krylov,  
 P. M. W. Gill,  M. Head-Gordon

 Contributors to earlier versions of Q-Chem not listed above: 
 R. D. Adamson,  B. Austin,  J. Baker,  G. J. O. Beran,  K. Brandhorst,  
 S. T. Brown,  E. F. C. Byrd,  A. K. Chakraborty,  C.-L. Cheng,  
 Siu Hung Chien,  D. M. Chipman,  D. L. Crittenden,  H. Dachsel,  
 R. J. Doerksen,  A. D. Dutoi,  L. Fusti-Molnar,  W. A. Goddard III,  
 A. Golubeva-Zadorozhnaya,  S. R. Gwaltney,  G. Hawkins,  A. Heyden,  
 S. Hirata,  G. Kedziora,  F. J. Keil,  C. Kelley,  Jihan Kim,  R. A. King,  
 R. Z. Khaliullin,  P. P. Korambath,  W. Kurlancheek,  A. M. Lee,  M. S. Lee,  
 S. V. Levchenko,  Ching Yeh Lin,  D. Liotard,  R. C. Lochan,  I. Lotan,  
 P. E. Maslen,  N. Nair,  D. P. O'Neill,  D. Neuhauser,  E. Neuscamman,  
 C. M. Oana,  R. Olson,  B. Peters,  R. Peverati,  P. A. Pieniazek,  
 Y. M. Rhee,  J. Ritchie,  M. A. Rohrdanz,  E. Rosta,  N. J. Russ,  
 H. F. Schaefer III,  N. E. Schultz,  N. Shenvi,  A. C. Simmonett,  A. Sodt,  
 D. Stuck,  K. S. Thanthiriwatte,  V. Vanovschi,  Tao Wang,  A. Warshel,  
 C. F. Williams,  Q. Wu,  X. Xu,  W. Zhang

 Please cite Q-Chem as follows:
 Y. Shao et al., Mol. Phys. 113, 184-215 (2015)
 DOI: 10.1080/00268976.2014.952696

 Q-Chem 5.2.1 for Intel X86 EM64T Linux

 Parts of Q-Chem use Armadillo 8.300.2 (Tropical Shenanigans).
 http://arma.sourceforge.net/

 Q-Chem begins on Mon Feb  7 13:46:39 2022  

Host: 
0

     Scratch files written to /gpfs/fs0/scratch/a/aspuru/rhickman/descriptor_computation/qchem50289//
 Jul1719 |scratch|qcdevops|jenkins|workspace|build_RNUM -1
Processing $rem in /scinet/niagara/software/commercial/qc52/config/preferences:
	 MEM_TOTAL  4000 
NAlpha2: 90
NElect   90
Mult     1

Checking the input file for inconsistencies... 	...done.

--------------------------------------------------------------
User input:
--------------------------------------------------------------
$molecule
0 1
C         4.10664898650000   -1.01474574410000   -0.11351385810000
C         3.43188520980000    0.11540298550000   -0.28969464800000
C         2.00322786100000    0.32182405390000   -0.09655079010000
C         1.46721296850000    1.59589329310000   -0.29276401600000
C         0.12153901680000    1.83327269630000   -0.11852765720000
C        -0.75191597720000    0.81356764040000    0.25946252090000
C        -2.17610117040000    1.08486621350000    0.44035657100000
C        -2.86789757050000    1.96779751870000   -0.26696744570000
C        -0.22061048350000   -0.46774352870000    0.46512982730000
C        -1.11872790050000   -1.62016703220000    0.85474117590000
C        -2.13192131870000   -1.83262410150000   -0.14981432620000
N        -2.92458081800000   -1.99860912890000   -0.95616647960000
C         1.12979668440000   -0.69861181790000    0.27934785840000
H         5.16832417980000   -1.06312293490000   -0.28405991280000
H         3.64189280540000   -1.93236089740000    0.20395551310000
H         3.97024215700000    0.99980125940000   -0.60866210830000
H         2.12001918390000    2.40707437810000   -0.58233923790000
H        -0.26846366090000    2.83006545660000   -0.25860673720000
H        -2.68482450640000    0.50982776320000    1.20352107400000
H        -2.42223144600000    2.53804788360000   -1.06444129230000
H        -3.91664463050000    2.13236721160000   -0.09085659920000
H        -1.61440427210000   -1.42177082440000    1.81124095880000
H        -0.53488079600000   -2.53933369900000    0.95481159500000
H         1.51484336400000   -1.69638654020000    0.42948697620000
$end

$rem
BASIS = 6-31G*
GUI = 2
METHOD = B3LYP
PRINT_ORBITALS false
MOLDEN_FORMAT false
--------------------------------------------------------------
 ----------------------------------------------------------------
             Standard Nuclear Orientation (Angstroms)
    I     Atom           X                Y                Z
 ----------------------------------------------------------------
    1      C       4.0901650438    -0.9844644488    -0.1341754425
    2      C       3.4065676333     0.1478885794    -0.2527215340
    3      C       1.9739079263     0.3299676508    -0.0648135692
    4      C       1.4278828479     1.6083976639    -0.1934111466
    5      C       0.0781116705     1.8232201826    -0.0216126365
    6      C      -0.7896717290     0.7755598953     0.2865407284
    7      C      -2.2183471174     1.0231540804     0.4660199521
    8      C      -2.9106254174     1.9392950632    -0.1972248508
    9      C      -0.2483920016    -0.5106889032     0.4241022257
   10      C      -1.1396871686    -1.6917335315     0.7359007832
   11      C      -2.1394349937    -1.8547847291    -0.2911090800
   12      N      -2.9213478997    -1.9809347290    -1.1149793922
   13      C       1.1061788838    -0.7183009611     0.2412099737
   14      H       5.1541063599    -1.0133693977    -0.2947179766
   15      H       3.6307322651    -1.9230429424     0.1242710942
   16      H       3.9399299430     1.0540539024    -0.5137154117
   17      H       2.0760569515     2.4407970258    -0.4279450468
   18      H      -0.3198768193     2.8229107274    -0.1084689607
   19      H      -2.7300505863     0.4003806148     1.1886550474
   20      H      -2.4615406023     2.5587084477    -0.9551286686
   21      H      -3.9628218821     2.0839870882    -0.0242640823
   22      H      -1.6479684086    -1.5534694971     1.6963596283
   23      H      -0.5481737273    -2.6098777795     0.7895839289
   24      H       1.4991083362    -1.7195983386     0.3379937727
 ----------------------------------------------------------------
 Molecular Point Group                 C1    NOp =  1
 Largest Abelian Subgroup              C1    NOp =  1
 Nuclear Repulsion Energy =         690.98737168 hartrees
 There are       45 alpha and       45 beta electrons
 Requested basis set is 6-31G(d)
 There are 74 shells and 217 basis functions

 Total QAlloc Memory Limit   4000 MB
 Mega-Array Size       188 MB
 MEM_STATIC part       192 MB
 A cutoff of  1.0D-08 yielded   1909 shell pairs
 There are     17729 function pairs
 Smallest overlap matrix eigenvalue = 3.28E-04

 Scale SEOQF with 1.000000e-01/1.000000e-01/1.000000e-01

 Standard Electronic Orientation quadrupole field applied
 Nucleus-field energy     =     0.0000000283 hartrees
 Guess from superposition of atomic densities
 Warning:  Energy on first SCF cycle will be non-variational
 SAD guess density has 90.000000 electrons

 -----------------------------------------------------------------------
  General SCF calculation program by
  Eric Jon Sundstrom, Paul Horn, Yuezhi Mao, Dmitri Zuev, Alec White,
  David Stuck, Shaama M.S., Shane Yost, Joonho Lee, David Small,
  Daniel Levine, Susi Lehtola, Hugh Burton, Evgeny Epifanovsky,
  Bang C. Huynh
 -----------------------------------------------------------------------
 Exchange:     0.2000 Hartree-Fock + 0.0800 Slater + 0.7200 B88
 Correlation:  0.1900 VWN1RPA + 0.8100 LYP
 Using SG-1 standard quadrature grid
 A restricted SCF calculation will be
 performed using DIIS
 SCF converges when DIIS error is below 1.0e-05
 ---------------------------------------
  Cycle       Energy         DIIS error
 ---------------------------------------
    1    -521.5389071090      5.52e-02  
    2    -518.3806372808      5.79e-03  
    3    -518.2196858829      8.08e-03  
    4    -518.5397837740      3.11e-03  
    5    -518.5924711368      2.82e-04  
    6    -518.5927653241      1.63e-04  
    7    -518.5929018340      6.82e-05  
    8    -518.5929307529      1.32e-05  
    9    -518.5929317071      4.05e-06  Convergence criterion met
 ---------------------------------------
 SCF time:   CPU 33.16s  wall 33.00s 
 SCF   energy in the final basis set =     -518.5929317071
 Total energy in the final basis set =     -518.5929317071
 
 --------------------------------------------------------------
 
                    Orbital Energies (a.u.)
 --------------------------------------------------------------
 
 Alpha MOs
 -- Occupied --
-14.3236 -10.2398 -10.2194 -10.2145 -10.2057 -10.2041 -10.1986 -10.1974
-10.1967 -10.1958 -10.1951 -10.1873 -10.1862  -0.9081  -0.8824  -0.8241
 -0.8032  -0.7738  -0.7356  -0.7199  -0.6488  -0.6100  -0.5845  -0.5672
 -0.5162  -0.5106  -0.5059  -0.4712  -0.4616  -0.4530  -0.4392  -0.4313
 -0.4143  -0.4012  -0.3855  -0.3647  -0.3560  -0.3533  -0.3496  -0.3343
 -0.3218  -0.3121  -0.2747  -0.2619  -0.2211
 -- Virtual --
 -0.0520  -0.0127   0.0118   0.0469   0.0501   0.0738   0.0862   0.0992
  0.1096   0.1259   0.1320   0.1501   0.1547   0.1726   0.1847   0.2018
  0.2089   0.2117   0.2305   0.2603   0.2721   0.2904   0.3154   0.3265
  0.3454   0.3502   0.3696   0.3865   0.4305   0.4523   0.4955   0.5020
  0.5074   0.5222   0.5326   0.5361   0.5511   0.5599   0.5765   0.5833
  0.5904   0.5959   0.6032   0.6098   0.6219   0.6234   0.6339   0.6483
  0.6738   0.6811   0.6929   0.6971   0.7107   0.7206   0.7436   0.7714
  0.7969   0.8030   0.8159   0.8190   0.8341   0.8520   0.8604   0.8615
  0.8664   0.8827   0.8882   0.9117   0.9408   0.9424   0.9609   0.9701
  0.9749   0.9810   0.9950   1.0050   1.0202   1.0732   1.0924   1.1087
  1.1260   1.1604   1.1948   1.2048   1.2278   1.2384   1.2904   1.3131
  1.3167   1.3373   1.3457   1.4392   1.4499   1.4601   1.4710   1.5006
  1.5038   1.5137   1.5167   1.5407   1.5626   1.6048   1.6641   1.6760
  1.6868   1.6948   1.7435   1.7703   1.8067   1.8164   1.8396   1.8848
  1.8981   1.9214   1.9314   1.9485   1.9741   1.9845   2.0007   2.0203
  2.0306   2.0419   2.0661   2.0859   2.1319   2.1526   2.1626   2.1852
  2.2104   2.2247   2.2420   2.2706   2.2903   2.3004   2.3293   2.3423
  2.3711   2.3868   2.4374   2.4773   2.5197   2.5835   2.6336   2.6439
  2.6675   2.6904   2.7224   2.7590   2.7833   2.8035   2.8071   2.8780
  2.8897   2.9600   3.0062   3.0679   3.2244   3.2653   3.4560   4.0684
  4.0848   4.1135   4.1264   4.1515   4.1549   4.2082   4.2384   4.3315
  4.3694   4.5161   4.6492   4.7814
 --------------------------------------------------------------
 
          Ground-State Mulliken Net Atomic Charges

     Atom                 Charge (a.u.)
  ----------------------------------------
      1 C                    -0.350281
      2 C                    -0.117315
      3 C                     0.191656
      4 C                    -0.196605
      5 C                    -0.184859
      6 C                     0.126199
      7 C                    -0.128484
      8 C                    -0.325376
      9 C                     0.122509
     10 C                    -0.443534
     11 C                     0.361406
     12 N                    -0.459982
     13 C                    -0.254449
     14 H                     0.148477
     15 H                     0.143189
     16 H                     0.130478
     17 H                     0.132840
     18 H                     0.136261
     19 H                     0.133642
     20 H                     0.148944
     21 H                     0.150818
     22 H                     0.205449
     23 H                     0.202523
     24 H                     0.126493
  ----------------------------------------
  Sum of atomic charges =     0.000000

 -----------------------------------------------------------------
                    Cartesian Multipole Moments
 -----------------------------------------------------------------
    Charge (ESU x 10^10)
                 0.0000
    Dipole Moment (Debye)
         X       2.5047      Y       1.0211      Z       2.4235
       Tot       3.6317
    Quadrupole Moments (Debye-Ang)
        XX     -78.7822     XY      -6.9860     YY     -70.6107
        XZ      -8.5021     YZ      -7.7901     ZZ     -79.6686
    Octopole Moments (Debye-Ang^2)
       XXX      44.4082    XXY      29.3039    XYY      16.8699
       YYY       5.6587    XXZ      18.0322    XYZ      13.6270
       YYZ       5.4763    XZZ      -0.9815    YZZ       1.8332
       ZZZ       5.6681
    Hexadecapole Moments (Debye-Ang^3)
      XXXX   -2420.3951   XXXY    -113.1264   XXYY    -590.7534
      XYYY     -31.0971   YYYY    -954.2121   XXXZ     -96.8128
      XXYZ     -55.0418   XYYZ     -19.6146   YYYZ     -40.5324
      XXZZ    -488.8216   XYZZ      -8.6005   YYZZ    -209.1887
      XZZZ     -13.6454   YZZZ     -12.9563   ZZZZ    -193.4867
 -----------------------------------------------------------------
Archival summary:
1\1\nia1977.scinet.local\SP\ProcedureUnspecified\6-31G*\11211\rhickman\MonFeb713:47:122022MonFeb713:47:122022\0\\#,ProcedureUnspecified,6-31G*,\\0,1\C\C,1,1.38254\H,2,1.07998,1,118.937\C,2,1.3948,1,121.715,3,179.963,0\C,4,1.39609,2,117.717,1,-0.511099,0\H,5,1.08075,4,119.388,2,179.867,0\C,5,1.37751,4,120.968,2,0.0750867,0\H,7,1.0795,5,119.712,4,178.918,0\C,7,1.39485,5,121.334,4,0.0264289,0\C,4,1.45636,2,123.116,1,179.472,0\H,10,1.08339,4,114.256,2,178.333,0\C,10,1.328,4,126.975,2,-1.83141,0\H,12,1.07637,10,121.225,4,-179.989,0\H,12,1.07648,10,123.037,4,0.0221477,0\C,9,1.46104,7,120.545,5,179.955,0\H,15,1.08254,9,116.534,7,-147.055,0\C,15,1.32607,9,124.481,7,33.4521,0\H,17,1.07609,15,121.531,9,-179.764,0\H,17,1.07693,15,122.118,9,1.99084,0\C,1,1.51212,2,119.176,3,-0.776365,0\H,20,1.09351,1,110.309,2,0.727348,0\H,20,1.09542,1,110.837,2,120.662,0\C,20,1.44251,1,110.487,2,-119.059,0\N,23,1.14283,20,179.262,1,40.9003,0\\\@

 Total job time:  33.70s(wall), 33.33s(cpu) 
 Mon Feb  7 13:47:12 2022

        *************************************************************
        *                                                           *
        *  Thank you very much for using Q-Chem.  Have a nice day.  *
        *                                                           *
        *************************************************************


