
Running Job 1 of 1 fragments/B023/conf-5/spe_input.inp
qchem fragments/B023/conf-5/spe_input.inp_269471.0 /gpfs/fs0/scratch/a/aspuru/rhickman/descriptor_computation/qchem269471/ 0
/scinet/niagara/software/commercial/qc52/exe/qcprog.exe_s fragments/B023/conf-5/spe_input.inp_269471.0 /gpfs/fs0/scratch/a/aspuru/rhickman/descriptor_computation/qchem269471/
                  Welcome to Q-Chem
     A Quantum Leap Into The Future Of Chemistry


 Q-Chem 5.2, Q-Chem, Inc., Pleasanton, CA (2019)

 License issued to: SRG Alan Aspuru-Guzik, University of Toronto

 Yihan Shao,  Zhengting Gan,  E. Epifanovsky,  A. T. B. Gilbert,  M. Wormit,  
 J. Kussmann,  A. W. Lange,  A. Behn,  Jia Deng,  Xintian Feng,  D. Ghosh,  
 M. Goldey,  P. R. Horn,  L. D. Jacobson,  I. Kaliman,  T. Kus,  A. Landau,  
 Jie Liu,  E. I. Proynov,  R. M. Richard,  R. P. Steele,  E. J. Sundstrom,  
 H. L. Woodcock III,  P. M. Zimmerman,  D. Zuev,  B. Albrecht,  E. Alguire,  
 S. A. Baeppler,  D. Barton,  Z. Benda,  Y. A. Bernard,  E. J. Berquist,  
 K. B. Bravaya,  H. Burton,  D. Casanova,  Chun-Min Chang,  Yunqing Chen,  
 A. Chien,  K. D. Closser,  M. P. Coons,  S. Coriani,  S. Dasgupta,  
 A. L. Dempwolff,  M. Diedenhofen,  Hainam Do,  R. G. Edgar,  Po-Tung Fang,  
 S. Faraji,  S. Fatehi,  Qingguo Feng,  K. D. Fenk,  J. Fosso-Tande,  
 J. Gayvert,  Qinghui Ge,  A. Ghysels,  G. Gidofalvi,  J. Gomes,  
 J. Gonthier,  A. Gunina,  D. Hait,  M. W. D. Hanson-Heine,  
 P. H. P. Harbach,  A. W. Hauser,  M. F. Herbst,  J. E. Herr,  
 E. G. Hohenstein,  Z. C. Holden,  Kerwin Hui,  B. C. Huynh,  T.-C. Jagau,  
 Hyunjun Ji,  B. Kaduk,  K. Khistyaev,  Jaehoon Kim,  P. Klunzinger,  K. Koh,  
 D. Kosenkov,  L. Koulias,  T. Kowalczyk,  C. M. Krauter,  A. Kunitsa,  
 Ka Un Lao,  A. Laurent,  K. V. Lawler,  Joonho Lee,  D. Lefrancois,  
 S. Lehtola,  D. S. Levine,  Yi-Pei Li,  You-Sheng Lin,  Fenglai Liu,  
 E. Livshits,  A. Luenser,  P. Manohar,  E. Mansoor,  S. F. Manzer,  
 Shan-Ping Mao,  Yuezhi Mao,  N. Mardirossian,  A. V. Marenich,  
 T. Markovich,  L. A. Martinez-Martinez,  S. A. Maurer,  N. J. Mayhall,  
 S. C. McKenzie,  J.-M. Mewes,  P. Morgante,  A. F. Morrison,  
 J. W. Mullinax,  K. Nanda,  T. S. Nguyen-Beck,  R. Olivares-Amaya,  
 J. A. Parkhill,  Zheng Pei,  T. M. Perrine,  F. Plasser,  P. Pokhilko,  
 S. Prager,  A. Prociuk,  E. Ramos,  D. R. Rehn,  F. Rob,  M. Scheurer,  
 M. Schneider,  N. Sergueev,  S. M. Sharada,  S. Sharma,  D. W. Small,  
 T. Stauch,  T. Stein,  Yu-Chuan Su,  A. J. W. Thom,  A. Tkatchenko,  
 T. Tsuchimochi,  N. M. Tubman,  L. Vogt,  M. L. Vidal,  O. Vydrov,  
 M. A. Watson,  J. Wenzel,  M. de Wergifosse,  T. A. Wesolowski,  A. White,  
 J. Witte,  A. Yamada,  Jun Yang,  K. Yao,  S. Yeganeh,  S. R. Yost,  
 Zhi-Qiang You,  A. Zech,  Igor Ying Zhang,  Xing Zhang,  Yan Zhao,  
 Ying Zhu,  B. R. Brooks,  G. K. L. Chan,  C. J. Cramer,  M. S. Gordon,  
 W. J. Hehre,  A. Klamt,  M. W. Schmidt,  C. D. Sherrill,  D. G. Truhlar,  
 A. Aspuru-Guzik,  R. Baer,  A. T. Bell,  N. A. Besley,  Jeng-Da Chai,  
 A. E. DePrince, III,  R. A. DiStasio Jr.,  A. Dreuw,  B. D. Dunietz,  
 T. R. Furlani,  Chao-Ping Hsu,  Yousung Jung,  Jing Kong,  D. S. Lambrecht,  
 WanZhen Liang,  C. Ochsenfeld,  V. A. Rassolov,  L. V. Slipchenko,  
 J. E. Subotnik,  T. Van Voorhis,  J. M. Herbert,  A. I. Krylov,  
 P. M. W. Gill,  M. Head-Gordon

 Contributors to earlier versions of Q-Chem not listed above: 
 R. D. Adamson,  B. Austin,  J. Baker,  G. J. O. Beran,  K. Brandhorst,  
 S. T. Brown,  E. F. C. Byrd,  A. K. Chakraborty,  C.-L. Cheng,  
 Siu Hung Chien,  D. M. Chipman,  D. L. Crittenden,  H. Dachsel,  
 R. J. Doerksen,  A. D. Dutoi,  L. Fusti-Molnar,  W. A. Goddard III,  
 A. Golubeva-Zadorozhnaya,  S. R. Gwaltney,  G. Hawkins,  A. Heyden,  
 S. Hirata,  G. Kedziora,  F. J. Keil,  C. Kelley,  Jihan Kim,  R. A. King,  
 R. Z. Khaliullin,  P. P. Korambath,  W. Kurlancheek,  A. M. Lee,  M. S. Lee,  
 S. V. Levchenko,  Ching Yeh Lin,  D. Liotard,  R. C. Lochan,  I. Lotan,  
 P. E. Maslen,  N. Nair,  D. P. O'Neill,  D. Neuhauser,  E. Neuscamman,  
 C. M. Oana,  R. Olson,  B. Peters,  R. Peverati,  P. A. Pieniazek,  
 Y. M. Rhee,  J. Ritchie,  M. A. Rohrdanz,  E. Rosta,  N. J. Russ,  
 H. F. Schaefer III,  N. E. Schultz,  N. Shenvi,  A. C. Simmonett,  A. Sodt,  
 D. Stuck,  K. S. Thanthiriwatte,  V. Vanovschi,  Tao Wang,  A. Warshel,  
 C. F. Williams,  Q. Wu,  X. Xu,  W. Zhang

 Please cite Q-Chem as follows:
 Y. Shao et al., Mol. Phys. 113, 184-215 (2015)
 DOI: 10.1080/00268976.2014.952696

 Q-Chem 5.2.1 for Intel X86 EM64T Linux

 Parts of Q-Chem use Armadillo 8.300.2 (Tropical Shenanigans).
 http://arma.sourceforge.net/

 Q-Chem begins on Mon Feb  7 09:45:39 2022  

Host: 
0

     Scratch files written to /gpfs/fs0/scratch/a/aspuru/rhickman/descriptor_computation/qchem269471//
 Jul1719 |scratch|qcdevops|jenkins|workspace|build_RNUM -1
Processing $rem in /scinet/niagara/software/commercial/qc52/config/preferences:
	 MEM_TOTAL  4000 
NAlpha2: 126
NElect   126
Mult     1

Checking the input file for inconsistencies... 	...done.

--------------------------------------------------------------
User input:
--------------------------------------------------------------
$molecule
0 1
C        -1.39292608750000    1.23962750560000    2.13928519540000
C        -2.24994734410000    0.54689996400000    1.40322132090000
C        -1.90745910930000   -0.39365917240000    0.33616506780000
C        -2.69870534250000   -1.53345907770000    0.19417547460000
C        -2.40761616230000   -2.50112417840000   -0.74645948370000
C        -1.31767067530000   -2.33732935820000   -1.58516602710000
C        -0.53609038870000   -1.20323045890000   -1.47493867330000
C        -0.81393318980000   -0.22563586920000   -0.52417744180000
C         0.00874234700000    0.99920506380000   -0.52817568230000
C        -0.61158041550000    2.22235941720000   -0.76984032330000
C         0.12232241520000    3.38599270730000   -0.88772380690000
C         1.50385270000000    3.34306843130000   -0.78309089620000
C         2.13523914470000    2.13696299250000   -0.55552814830000
C         1.40403939020000    0.95785925450000   -0.41088002030000
C         2.15215833990000   -0.27284825850000   -0.14489721090000
C         1.83066249750000   -1.23607446920000    0.70088979840000
F         0.77534679360000   -1.29599668900000    1.50094196980000
F         2.58518555450000   -2.31834033140000    0.89689186070000
H        -1.73004547290000    1.88438348600000    2.93330260300000
H        -0.32871301950000    1.17807303890000    1.99520305550000
H        -3.30946844750000    0.60824526510000    1.62403417650000
H        -3.54607534760000   -1.66402170690000    0.85236215710000
H        -3.02936292740000   -3.38033305720000   -0.82855048450000
H        -1.08249609310000   -3.08507965770000   -2.32792626190000
H         0.29940290730000   -1.05739326590000   -2.14574920050000
H        -1.68619897460000    2.24635289060000   -0.87452101350000
H        -0.37919165990000    4.32378470510000   -1.07398310540000
H         2.08636200450000    4.24641354380000   -0.88416826730000
H         3.21186152050000    2.09899440260000   -0.47205431940000
H         3.09921654450000   -0.38797826660000   -0.65260497420000
$end

$rem
BASIS = 6-31G*
GUI = 2
METHOD = B3LYP
PRINT_ORBITALS false
MOLDEN_FORMAT false
--------------------------------------------------------------
 ----------------------------------------------------------------
             Standard Nuclear Orientation (Angstroms)
    I     Atom           X                Y                Z
 ----------------------------------------------------------------
    1      C      -0.1355385807    -1.6715255898     2.2595913602
    2      C       0.8548113133    -2.0652557124     1.4719806781
    3      C       1.3900146463    -1.3302631735     0.3257249966
    4      C       2.7631198481    -1.4001097960     0.0910357885
    5      C       3.3574056329    -0.6876561150    -0.9312836043
    6      C       2.5787621663     0.1034562816    -1.7595915794
    7      C       1.2134174106     0.1665346629    -1.5569763208
    8      C       0.6043925821    -0.5394840438    -0.5237962458
    9      C      -0.8672899190    -0.4957975280    -0.4274196908
   10      C      -1.5830372110    -1.6831170787    -0.5588989636
   11      C      -2.9636369402    -1.6877562489    -0.5806975931
   12      C      -3.6583908529    -0.4918069279    -0.4888352513
   13      C      -2.9638973253     0.6950722882    -0.3700057827
   14      C      -1.5698496217     0.7115986398    -0.3228924446
   15      C      -0.9143342332     2.0122044486    -0.1686397110
   16      C       0.1276568009     2.2962018757     0.5930164589
   17      F       0.7976066470     1.4771276614     1.3915463703
   18      F       0.6498377365     3.5196741435     0.6902991847
   19      H      -0.4433918838    -2.2586604124     3.1083094770
   20      H      -0.6623294234    -0.7466479705     2.1040572263
   21      H       1.3846028139    -2.9821176099     1.7039111815
   22      H       3.3716109859    -2.0131255318     0.7408376642
   23      H       4.4245782730    -0.7497632874    -1.0849113374
   24      H       3.0314128993     0.6618342050    -2.5654772843
   25      H       0.5975275495     0.7607391735    -2.2179642000
   26      H      -1.0363291505    -2.6095805951    -0.6543684899
   27      H      -3.4986220383    -2.6200267660    -0.6823113352
   28      H      -4.7376579065    -0.4851052440    -0.5153650758
   29      H      -3.5013766810     1.6295742242    -0.2968804938
   30      H      -1.3586591866     2.8478876740    -0.6903198976
 ----------------------------------------------------------------
 Molecular Point Group                 C1    NOp =  1
 Largest Abelian Subgroup              C1    NOp =  1
 Nuclear Repulsion Energy =        1276.26878238 hartrees
 There are       63 alpha and       63 beta electrons
 Requested basis set is 6-31G(d)
 There are 96 shells and 294 basis functions

 Total QAlloc Memory Limit   4000 MB
 Mega-Array Size       188 MB
 MEM_STATIC part       192 MB
 A cutoff of  1.0D-08 yielded   3015 shell pairs
 There are     30700 function pairs
 Smallest overlap matrix eigenvalue = 3.41E-04

 Scale SEOQF with 1.000000e-01/1.000000e-01/1.000000e-01

 Standard Electronic Orientation quadrupole field applied
 Nucleus-field energy     =     0.0000000269 hartrees
 Guess from superposition of atomic densities
 Warning:  Energy on first SCF cycle will be non-variational
 SAD guess density has 126.000000 electrons

 -----------------------------------------------------------------------
  General SCF calculation program by
  Eric Jon Sundstrom, Paul Horn, Yuezhi Mao, Dmitri Zuev, Alec White,
  David Stuck, Shaama M.S., Shane Yost, Joonho Lee, David Small,
  Daniel Levine, Susi Lehtola, Hugh Burton, Evgeny Epifanovsky,
  Bang C. Huynh
 -----------------------------------------------------------------------
 Exchange:     0.2000 Hartree-Fock + 0.0800 Slater + 0.7200 B88
 Correlation:  0.1900 VWN1RPA + 0.8100 LYP
 Using SG-1 standard quadrature grid
 A restricted SCF calculation will be
 performed using DIIS
 SCF converges when DIIS error is below 1.0e-05
 ---------------------------------------
  Cycle       Energy         DIIS error
 ---------------------------------------
    1    -820.8799106174      4.72e-02  
    2    -816.2790755416      4.90e-03  
    3    -816.1567407592      6.02e-03  
    4    -816.5384853120      1.20e-03  
    5    -816.5536608567      3.56e-04  
    6    -816.5546981452      1.85e-04  
    7    -816.5550729243      4.67e-05  
    8    -816.5550954808      1.33e-05  
    9    -816.5550973751      4.16e-06  Convergence criterion met
 ---------------------------------------
 SCF time:   CPU 80.62s  wall 81.00s 
 SCF   energy in the final basis set =     -816.5550973751
 Total energy in the final basis set =     -816.5550973751
 
 --------------------------------------------------------------
 
                    Orbital Energies (a.u.)
 --------------------------------------------------------------
 
 Alpha MOs
 -- Occupied --
-24.7361 -24.7287 -10.3513 -10.2028 -10.1973 -10.1948 -10.1923 -10.1917
-10.1880 -10.1869 -10.1857 -10.1845 -10.1844 -10.1842 -10.1837 -10.1831
-10.1830 -10.1736  -1.2785  -1.2178  -0.8788  -0.8539  -0.8036  -0.7898
 -0.7733  -0.7386  -0.7288  -0.7163  -0.6431  -0.6287  -0.6107  -0.6018
 -0.5864  -0.5661  -0.5577  -0.5290  -0.5130  -0.5065  -0.4903  -0.4734
 -0.4647  -0.4484  -0.4473  -0.4352  -0.4320  -0.4274  -0.4232  -0.4179
 -0.4140  -0.4051  -0.3749  -0.3713  -0.3649  -0.3609  -0.3475  -0.3374
 -0.3315  -0.2925  -0.2819  -0.2637  -0.2437  -0.2226  -0.2135
 -- Virtual --
 -0.0281  -0.0169  -0.0069   0.0169   0.0539   0.0572   0.0944   0.1037
  0.1168   0.1258   0.1437   0.1528   0.1621   0.1629   0.1672   0.1709
  0.1858   0.1880   0.1934   0.1999   0.2047   0.2097   0.2671   0.2899
  0.2949   0.3131   0.3172   0.3211   0.3285   0.3468   0.3551   0.3725
  0.3985   0.4184   0.4290   0.4701   0.4841   0.4986   0.5057   0.5081
  0.5112   0.5276   0.5355   0.5422   0.5507   0.5573   0.5611   0.5689
  0.5795   0.5799   0.5879   0.5992   0.6048   0.6109   0.6145   0.6177
  0.6249   0.6273   0.6344   0.6411   0.6486   0.6660   0.6794   0.6941
  0.7015   0.7071   0.7184   0.7331   0.7546   0.7887   0.8051   0.8154
  0.8270   0.8369   0.8390   0.8431   0.8485   0.8565   0.8628   0.8779
  0.8859   0.8904   0.9018   0.9174   0.9267   0.9432   0.9494   0.9558
  0.9625   0.9838   0.9938   1.0094   1.0427   1.0513   1.0715   1.0806
  1.0856   1.1096   1.1187   1.1297   1.1494   1.1568   1.1790   1.1881
  1.2167   1.2340   1.2375   1.2405   1.2615   1.2648   1.2839   1.3113
  1.3215   1.3484   1.3515   1.3837   1.4156   1.4350   1.4452   1.4473
  1.4553   1.4640   1.4754   1.4892   1.4948   1.5065   1.5090   1.5296
  1.5323   1.5508   1.5853   1.5859   1.6534   1.6854   1.7109   1.7335
  1.7647   1.7848   1.7966   1.7999   1.8230   1.8274   1.8401   1.8501
  1.8717   1.9010   1.9074   1.9182   1.9284   1.9329   1.9462   1.9582
  1.9603   1.9939   2.0075   2.0103   2.0174   2.0308   2.0453   2.0583
  2.0682   2.1155   2.1285   2.1412   2.1474   2.1518   2.1735   2.1872
  2.2192   2.2283   2.2425   2.2510   2.2669   2.2769   2.2965   2.3064
  2.3223   2.3438   2.3503   2.3799   2.3943   2.4158   2.4385   2.5065
  2.5298   2.5420   2.5660   2.6042   2.6089   2.6297   2.6496   2.6648
  2.6820   2.6967   2.7086   2.7336   2.7473   2.7727   2.7857   2.7933
  2.8324   2.8523   2.8652   2.9076   2.9639   3.0135   3.0299   3.0970
  3.1470   3.2195   3.3041   3.4315   3.5075   4.0963   4.1079   4.1117
  4.1132   4.1621   4.1876   4.1991   4.2256   4.2934   4.3093   4.3693
  4.4207   4.4600   4.4741   4.7004   4.8261   4.8696   5.3372
 --------------------------------------------------------------
 
          Ground-State Mulliken Net Atomic Charges

     Atom                 Charge (a.u.)
  ----------------------------------------
      1 C                    -0.325355
      2 C                    -0.147491
      3 C                     0.146677
      4 C                    -0.199208
      5 C                    -0.120029
      6 C                    -0.133208
      7 C                    -0.158318
      8 C                    -0.001828
      9 C                    -0.004802
     10 C                    -0.138434
     11 C                    -0.133978
     12 C                    -0.124346
     13 C                    -0.192201
     14 C                     0.151027
     15 C                    -0.350632
     16 C                     0.579232
     17 F                    -0.227544
     18 F                    -0.250689
     19 H                     0.139223
     20 H                     0.157264
     21 H                     0.129222
     22 H                     0.126830
     23 H                     0.127639
     24 H                     0.128312
     25 H                     0.134731
     26 H                     0.136948
     27 H                     0.129071
     28 H                     0.128743
     29 H                     0.128234
     30 H                     0.164909
  ----------------------------------------
  Sum of atomic charges =     0.000000

 -----------------------------------------------------------------
                    Cartesian Multipole Moments
 -----------------------------------------------------------------
    Charge (ESU x 10^10)
                 0.0000
    Dipole Moment (Debye)
         X      -0.7476      Y      -0.4737      Z      -0.5819
       Tot       1.0592
    Quadrupole Moments (Debye-Ang)
        XX     -92.2595     XY      -2.8896     YY     -97.8177
        XZ      -1.2659     YZ      -4.3102     ZZ    -101.4782
    Octopole Moments (Debye-Ang^2)
       XXX       8.2054    XXY       6.2795    XYY      -7.7240
       YYY      23.8526    XXZ      -3.1130    XYZ      -6.7116
       YYZ       5.5883    XZZ       9.3544    YZZ      15.2893
       ZZZ      20.2629
    Hexadecapole Moments (Debye-Ang^3)
      XXXX   -2355.6349   XXXY      15.7258   XXYY    -658.0205
      XYYY      11.0067   YYYY   -1567.0376   XXXZ       4.0640
      XXYZ      -1.3400   XYYZ      24.1570   YYYZ       6.0328
      XXZZ    -574.3578   XYZZ      17.4307   YYZZ    -382.8760
      XZZZ     -16.3865   YZZZ       7.3781   ZZZZ    -783.1477
 -----------------------------------------------------------------
Archival summary:
1\1\nia0231.scinet.local\SP\ProcedureUnspecified\6-31G*\21612\rhickman\MonFeb709:47:002022MonFeb709:47:002022\0\\#,ProcedureUnspecified,6-31G*,\\0,1\F\C,1,1.32566\C,2,1.32156,1,127.796\H,3,1.08071,2,115.862,1,175.639,0\F,2,1.3338,1,108.964,3,178.325,0\C,3,1.46461,2,127.187,1,-0.777426,0\C,6,1.39494,3,117.475,2,138.713,0\H,7,1.08052,6,118.985,3,0.292104,0\C,7,1.38026,6,121.06,3,-178.792,0\H,9,1.07961,7,119.985,6,179.489,0\C,9,1.38615,7,119.697,6,-0.849403,0\H,11,1.07966,9,120.191,7,-179.481,0\C,11,1.38078,9,119.815,7,-0.295684,0\H,13,1.07997,11,120.125,9,-178.506,0\C,13,1.39259,11,121.215,9,0.886359,0\C,15,1.47548,13,118.766,11,-174.94,0\C,16,1.3917,15,118.031,13,117.827,0\H,17,1.08134,16,118.902,15,3.15834,0\C,17,1.38174,16,121.206,15,-175.888,0\H,19,1.07988,17,120.002,16,-179.805,0\C,19,1.385,17,119.598,16,0.750763,0\H,21,1.07996,19,120.219,17,179.571,0\C,21,1.38054,19,119.712,17,-0.27555,0\H,23,1.08088,21,119.705,19,-179.659,0\C,23,1.39477,21,121.503,19,-0.879098,0\C,25,1.46306,23,117.827,21,-176.978,0\H,26,1.08402,25,114.44,23,-32.2881,0\C,26,1.3252,25,126.14,23,143.661,0\H,28,1.07568,26,122.378,25,1.15369,0\H,28,1.07695,26,121.334,25,-177.594,0\\\@

 Total job time:  81.37s(wall), 80.90s(cpu) 
 Mon Feb  7 09:47:00 2022

        *************************************************************
        *                                                           *
        *  Thank you very much for using Q-Chem.  Have a nice day.  *
        *                                                           *
        *************************************************************


