
Running Job 1 of 1 fragments/C097/conf-1/spe_input.inp
qchem fragments/C097/conf-1/spe_input.inp_42785.0 /gpfs/fs0/scratch/a/aspuru/rhickman/descriptor_computation/qchem42785/ 0
/scinet/niagara/software/commercial/qc52/exe/qcprog.exe_s fragments/C097/conf-1/spe_input.inp_42785.0 /gpfs/fs0/scratch/a/aspuru/rhickman/descriptor_computation/qchem42785/
                  Welcome to Q-Chem
     A Quantum Leap Into The Future Of Chemistry


 Q-Chem 5.2, Q-Chem, Inc., Pleasanton, CA (2019)

 License issued to: SRG Alan Aspuru-Guzik, University of Toronto

 Yihan Shao,  Zhengting Gan,  E. Epifanovsky,  A. T. B. Gilbert,  M. Wormit,  
 J. Kussmann,  A. W. Lange,  A. Behn,  Jia Deng,  Xintian Feng,  D. Ghosh,  
 M. Goldey,  P. R. Horn,  L. D. Jacobson,  I. Kaliman,  T. Kus,  A. Landau,  
 Jie Liu,  E. I. Proynov,  R. M. Richard,  R. P. Steele,  E. J. Sundstrom,  
 H. L. Woodcock III,  P. M. Zimmerman,  D. Zuev,  B. Albrecht,  E. Alguire,  
 S. A. Baeppler,  D. Barton,  Z. Benda,  Y. A. Bernard,  E. J. Berquist,  
 K. B. Bravaya,  H. Burton,  D. Casanova,  Chun-Min Chang,  Yunqing Chen,  
 A. Chien,  K. D. Closser,  M. P. Coons,  S. Coriani,  S. Dasgupta,  
 A. L. Dempwolff,  M. Diedenhofen,  Hainam Do,  R. G. Edgar,  Po-Tung Fang,  
 S. Faraji,  S. Fatehi,  Qingguo Feng,  K. D. Fenk,  J. Fosso-Tande,  
 J. Gayvert,  Qinghui Ge,  A. Ghysels,  G. Gidofalvi,  J. Gomes,  
 J. Gonthier,  A. Gunina,  D. Hait,  M. W. D. Hanson-Heine,  
 P. H. P. Harbach,  A. W. Hauser,  M. F. Herbst,  J. E. Herr,  
 E. G. Hohenstein,  Z. C. Holden,  Kerwin Hui,  B. C. Huynh,  T.-C. Jagau,  
 Hyunjun Ji,  B. Kaduk,  K. Khistyaev,  Jaehoon Kim,  P. Klunzinger,  K. Koh,  
 D. Kosenkov,  L. Koulias,  T. Kowalczyk,  C. M. Krauter,  A. Kunitsa,  
 Ka Un Lao,  A. Laurent,  K. V. Lawler,  Joonho Lee,  D. Lefrancois,  
 S. Lehtola,  D. S. Levine,  Yi-Pei Li,  You-Sheng Lin,  Fenglai Liu,  
 E. Livshits,  A. Luenser,  P. Manohar,  E. Mansoor,  S. F. Manzer,  
 Shan-Ping Mao,  Yuezhi Mao,  N. Mardirossian,  A. V. Marenich,  
 T. Markovich,  L. A. Martinez-Martinez,  S. A. Maurer,  N. J. Mayhall,  
 S. C. McKenzie,  J.-M. Mewes,  P. Morgante,  A. F. Morrison,  
 J. W. Mullinax,  K. Nanda,  T. S. Nguyen-Beck,  R. Olivares-Amaya,  
 J. A. Parkhill,  Zheng Pei,  T. M. Perrine,  F. Plasser,  P. Pokhilko,  
 S. Prager,  A. Prociuk,  E. Ramos,  D. R. Rehn,  F. Rob,  M. Scheurer,  
 M. Schneider,  N. Sergueev,  S. M. Sharada,  S. Sharma,  D. W. Small,  
 T. Stauch,  T. Stein,  Yu-Chuan Su,  A. J. W. Thom,  A. Tkatchenko,  
 T. Tsuchimochi,  N. M. Tubman,  L. Vogt,  M. L. Vidal,  O. Vydrov,  
 M. A. Watson,  J. Wenzel,  M. de Wergifosse,  T. A. Wesolowski,  A. White,  
 J. Witte,  A. Yamada,  Jun Yang,  K. Yao,  S. Yeganeh,  S. R. Yost,  
 Zhi-Qiang You,  A. Zech,  Igor Ying Zhang,  Xing Zhang,  Yan Zhao,  
 Ying Zhu,  B. R. Brooks,  G. K. L. Chan,  C. J. Cramer,  M. S. Gordon,  
 W. J. Hehre,  A. Klamt,  M. W. Schmidt,  C. D. Sherrill,  D. G. Truhlar,  
 A. Aspuru-Guzik,  R. Baer,  A. T. Bell,  N. A. Besley,  Jeng-Da Chai,  
 A. E. DePrince, III,  R. A. DiStasio Jr.,  A. Dreuw,  B. D. Dunietz,  
 T. R. Furlani,  Chao-Ping Hsu,  Yousung Jung,  Jing Kong,  D. S. Lambrecht,  
 WanZhen Liang,  C. Ochsenfeld,  V. A. Rassolov,  L. V. Slipchenko,  
 J. E. Subotnik,  T. Van Voorhis,  J. M. Herbert,  A. I. Krylov,  
 P. M. W. Gill,  M. Head-Gordon

 Contributors to earlier versions of Q-Chem not listed above: 
 R. D. Adamson,  B. Austin,  J. Baker,  G. J. O. Beran,  K. Brandhorst,  
 S. T. Brown,  E. F. C. Byrd,  A. K. Chakraborty,  C.-L. Cheng,  
 Siu Hung Chien,  D. M. Chipman,  D. L. Crittenden,  H. Dachsel,  
 R. J. Doerksen,  A. D. Dutoi,  L. Fusti-Molnar,  W. A. Goddard III,  
 A. Golubeva-Zadorozhnaya,  S. R. Gwaltney,  G. Hawkins,  A. Heyden,  
 S. Hirata,  G. Kedziora,  F. J. Keil,  C. Kelley,  Jihan Kim,  R. A. King,  
 R. Z. Khaliullin,  P. P. Korambath,  W. Kurlancheek,  A. M. Lee,  M. S. Lee,  
 S. V. Levchenko,  Ching Yeh Lin,  D. Liotard,  R. C. Lochan,  I. Lotan,  
 P. E. Maslen,  N. Nair,  D. P. O'Neill,  D. Neuhauser,  E. Neuscamman,  
 C. M. Oana,  R. Olson,  B. Peters,  R. Peverati,  P. A. Pieniazek,  
 Y. M. Rhee,  J. Ritchie,  M. A. Rohrdanz,  E. Rosta,  N. J. Russ,  
 H. F. Schaefer III,  N. E. Schultz,  N. Shenvi,  A. C. Simmonett,  A. Sodt,  
 D. Stuck,  K. S. Thanthiriwatte,  V. Vanovschi,  Tao Wang,  A. Warshel,  
 C. F. Williams,  Q. Wu,  X. Xu,  W. Zhang

 Please cite Q-Chem as follows:
 Y. Shao et al., Mol. Phys. 113, 184-215 (2015)
 DOI: 10.1080/00268976.2014.952696

 Q-Chem 5.2.1 for Intel X86 EM64T Linux

 Parts of Q-Chem use Armadillo 8.300.2 (Tropical Shenanigans).
 http://arma.sourceforge.net/

 Q-Chem begins on Mon Feb  7 13:25:59 2022  

Host: 
0

     Scratch files written to /gpfs/fs0/scratch/a/aspuru/rhickman/descriptor_computation/qchem42785//
 Jul1719 |scratch|qcdevops|jenkins|workspace|build_RNUM -1
Processing $rem in /scinet/niagara/software/commercial/qc52/config/preferences:
	 MEM_TOTAL  4000 
NAlpha2: 70
NElect   70
Mult     1

Checking the input file for inconsistencies... 	...done.

--------------------------------------------------------------
User input:
--------------------------------------------------------------
$molecule
0 1
C        -3.72227371980000    0.53391463670000    0.00111403170000
C        -2.77537346270000   -0.39709853430000   -0.00140509380000
C        -1.34090320330000   -0.15981904950000   -0.00023321390000
C        -0.73444297260000    1.10330043310000    0.00069101540000
N         0.57190970870000    1.25567204110000    0.00048974870000
C         1.34091078330000    0.15983920870000   -0.00002374680000
C         2.77539306480000    0.39707838640000   -0.00090496060000
C         3.72224465160000   -0.53398751050000    0.00055891080000
C         0.73444857050000   -1.10325458770000    0.00000232060000
N        -0.57191059960000   -1.25563257010000   -0.00038369710000
H        -4.76528967140000    0.26775996680000   -0.00029063290000
H        -3.50324697920000    1.58819422570000    0.00468839060000
H        -3.03564626030000   -1.44716571450000   -0.00463247110000
H        -1.31199007720000    2.01738787910000    0.00130131970000
H         3.03572830630000    1.44709727880000   -0.00297471950000
H         3.50315526330000   -1.58823451190000    0.00290021110000
H         4.76527214930000   -0.26791450680000   -0.00028204080000
H         1.31198541750000   -2.01735118400000    0.00020830300000
$end

$rem
BASIS = 6-31G*
GUI = 2
METHOD = B3LYP
PRINT_ORBITALS false
MOLDEN_FORMAT false
--------------------------------------------------------------
 ----------------------------------------------------------------
             Standard Nuclear Orientation (Angstroms)
    I     Atom           X                Y                Z
 ----------------------------------------------------------------
    1      C       3.7460508763    -0.3278562482     0.0009251914
    2      C       2.7492546459     0.5495288123    -0.0012423573
    3      C       1.3300505138     0.2335124610    -0.0001702540
    4      C       0.7941620209    -1.0611261087     0.0002655055
    5      N      -0.5018013354    -1.2852987719    -0.0000021721
    6      C      -1.3300572489    -0.2335361346    -0.0000997528
    7      C      -2.7492756384    -0.5495121155    -0.0010807277
    8      C      -3.7460261197     0.3279267466     0.0007347407
    9      C      -0.7941653463     1.0610765328     0.0004147744
   10      N       0.5018041286     1.2852561437     0.0000951701
   11      H       4.7728040614    -0.0045935478    -0.0003709906
   12      H       3.5854909348    -1.3926104017     0.0040935856
   13      H       2.9512301724     1.6123511618    -0.0040651363
   14      H       1.4212337090    -1.9419767875     0.0005284871
   15      H      -2.9513162565    -1.6122876622    -0.0035550664
   16      H      -3.5854017396     1.3926495475     0.0034819932
   17      H      -4.7727953704     0.0047458128    -0.0002146621
   18      H      -1.4212272846     1.9419366005     0.0009680830
 ----------------------------------------------------------------
 Molecular Point Group                 C1    NOp =  1
 Largest Abelian Subgroup              C1    NOp =  1
 Nuclear Repulsion Energy =         463.12037839 hartrees
 There are       35 alpha and       35 beta electrons
 Requested basis set is 6-31G(d)
 There are 56 shells and 166 basis functions

 Total QAlloc Memory Limit   4000 MB
 Mega-Array Size       188 MB
 MEM_STATIC part       192 MB
 A cutoff of  1.0D-08 yielded   1158 shell pairs
 There are     11252 function pairs
 Smallest overlap matrix eigenvalue = 1.13E-03

 Scale SEOQF with 1.000000e-01/1.000000e-01/1.000000e+00

 Standard Electronic Orientation quadrupole field applied
 Nucleus-field energy     =     0.0000000179 hartrees
 Guess from superposition of atomic densities
 Warning:  Energy on first SCF cycle will be non-variational
 SAD guess density has 70.000000 electrons

 -----------------------------------------------------------------------
  General SCF calculation program by
  Eric Jon Sundstrom, Paul Horn, Yuezhi Mao, Dmitri Zuev, Alec White,
  David Stuck, Shaama M.S., Shane Yost, Joonho Lee, David Small,
  Daniel Levine, Susi Lehtola, Hugh Burton, Evgeny Epifanovsky,
  Bang C. Huynh
 -----------------------------------------------------------------------
 Exchange:     0.2000 Hartree-Fock + 0.0800 Slater + 0.7200 B88
 Correlation:  0.1900 VWN1RPA + 0.8100 LYP
 Using SG-1 standard quadrature grid
 A restricted SCF calculation will be
 performed using DIIS
 SCF converges when DIIS error is below 1.0e-05
 ---------------------------------------
  Cycle       Energy         DIIS error
 ---------------------------------------
    1    -421.4535973104      6.39e-02  
    2    -418.9953228528      5.80e-03  
    3    -419.0046658293      5.79e-03  
    4    -419.1149221018      1.15e-03  
    5    -419.1187453257      3.55e-04  
    6    -419.1191294313      1.02e-04  
    7    -419.1191601651      3.60e-05  
    8    -419.1191639596      1.20e-05  
    9    -419.1191644749      1.50e-06  Convergence criterion met
 ---------------------------------------
 SCF time:   CPU 16.65s  wall 17.00s 
 SCF   energy in the final basis set =     -419.1191644749
 Total energy in the final basis set =     -419.1191644749
 
 --------------------------------------------------------------
 
                    Orbital Energies (a.u.)
 --------------------------------------------------------------
 
 Alpha MOs
 -- Occupied --
-14.3431 -14.3431 -10.2354 -10.2354 -10.2299 -10.2299 -10.1970 -10.1970
-10.1930 -10.1930  -0.9882  -0.9136  -0.8217  -0.7910  -0.7385  -0.6773
 -0.6530  -0.5967  -0.5778  -0.5316  -0.5069  -0.4771  -0.4631  -0.4563
 -0.4348  -0.4261  -0.3974  -0.3733  -0.3694  -0.3508  -0.3144  -0.3009
 -0.2865  -0.2450  -0.2292
 -- Virtual --
 -0.0657  -0.0367   0.0082   0.0791   0.1054   0.1063   0.1227   0.1265
  0.1702   0.1757   0.1911   0.2008   0.2008   0.2434   0.2786   0.2927
  0.3256   0.3318   0.3578   0.3850   0.4277   0.4323   0.4694   0.4777
  0.4963   0.5091   0.5199   0.5573   0.5681   0.5698   0.6009   0.6019
  0.6075   0.6243   0.6346   0.6420   0.6632   0.6727   0.6831   0.6945
  0.7137   0.7216   0.8113   0.8132   0.8158   0.8455   0.8563   0.8717
  0.8746   0.8816   0.8866   0.9067   0.9141   0.9735   0.9737   0.9811
  0.9886   1.0068   1.0359   1.1005   1.1144   1.1746   1.1805   1.2064
  1.2322   1.2496   1.2774   1.3377   1.3399   1.4038   1.4454   1.4634
  1.4770   1.4891   1.5149   1.5171   1.5313   1.5589   1.6612   1.6680
  1.7375   1.7663   1.7844   1.7884   1.8261   1.9061   1.9075   1.9650
  1.9815   1.9964   2.0125   2.0474   2.0954   2.1520   2.1664   2.1795
  2.1933   2.2141   2.2538   2.2732   2.2794   2.3721   2.3908   2.3944
  2.4108   2.4706   2.5404   2.5528   2.6044   2.6201   2.6275   2.6711
  2.7167   2.7483   2.7995   2.8879   2.9029   2.9668   3.1179   3.2697
  3.4760   3.9908   4.0559   4.0899   4.1420   4.2010   4.2439   4.2562
  4.3473   4.5336   4.6342
 --------------------------------------------------------------
 
          Ground-State Mulliken Net Atomic Charges

     Atom                 Charge (a.u.)
  ----------------------------------------
      1 C                    -0.342431
      2 C                    -0.095495
      3 C                     0.287719
      4 C                     0.010445
      5 N                    -0.459406
      6 C                     0.287715
      7 C                    -0.095492
      8 C                    -0.342428
      9 C                     0.010438
     10 N                    -0.459407
     11 H                     0.154176
     12 H                     0.149753
     13 H                     0.150421
     14 H                     0.144821
     15 H                     0.150419
     16 H                     0.149755
     17 H                     0.154176
     18 H                     0.144819
  ----------------------------------------
  Sum of atomic charges =     0.000000

 -----------------------------------------------------------------
                    Cartesian Multipole Moments
 -----------------------------------------------------------------
    Charge (ESU x 10^10)
                 0.0000
    Dipole Moment (Debye)
         X      -0.0000      Y       0.0000      Z      -0.0002
       Tot       0.0002
    Quadrupole Moments (Debye-Ang)
        XX     -46.9033     XY      -4.0253     YY     -58.8577
        XZ      -0.0012     YZ      -0.0009     ZZ     -60.6063
    Octopole Moments (Debye-Ang^2)
       XXX      -0.0013    XXY       0.0002    XYY       0.0003
       YYY       0.0004    XXZ      -0.0111    XYZ      -0.0515
       YYZ       0.0011    XZZ      -0.0002    YZZ      -0.0001
       ZZZ      -0.0005
    Hexadecapole Moments (Debye-Ang^3)
      XXXX   -1706.6024   XXXY       6.6993   XXYY    -348.5596
      XYYY     -18.4672   YYYY    -341.7468   XXXZ      -0.0207
      XXYZ      -0.0109   XYYZ      -0.0022   YYYZ      -0.0016
      XXZZ    -368.7025   XYZZ       0.5577   YYZZ     -68.0705
      XZZZ      -0.0013   YZZZ      -0.0003   ZZZZ     -59.6936
 -----------------------------------------------------------------
Archival summary:
1\1\nia1977.scinet.local\SP\ProcedureUnspecified\6-31G*\288\rhickman\MonFeb713:26:162022MonFeb713:26:162022\0\\#,ProcedureUnspecified,6-31G*,\\0,1\N\C,1,1.31522\H,2,1.08126,1,115.632\C,1,1.33871,2,118.406,3,179.98,0\C,2,1.40114,1,122.301,3,179.992,0\N,5,1.33874,2,119.293,1,0.046366,0\C,6,1.31521,5,118.406,2,-0.0154694,0\H,7,1.08126,6,115.633,5,179.989,0\C,4,1.45396,1,115.667,2,179.968,0\H,9,1.08185,4,113.313,1,-0.136883,0\C,9,1.32794,4,126.092,1,179.861,0\H,11,1.07644,9,121.169,4,179.983,0\H,11,1.0768,9,122.779,4,-0.0198354,0\C,5,1.45397,2,125.038,1,-179.938,0\H,14,1.08181,5,113.316,2,179.873,0\C,14,1.32794,5,126.091,2,-0.126523,0\H,16,1.07643,14,121.171,5,179.998,0\H,16,1.07677,14,122.779,5,-0.0184904,0\\\@

 Total job time:  16.85s(wall), 16.78s(cpu) 
 Mon Feb  7 13:26:16 2022

        *************************************************************
        *                                                           *
        *  Thank you very much for using Q-Chem.  Have a nice day.  *
        *                                                           *
        *************************************************************


