
Running Job 1 of 1 fragments/A015/conf-2/spe_input.inp
qchem fragments/A015/conf-2/spe_input.inp_166999.0 /gpfs/fs0/scratch/a/aspuru/rhickman/descriptor_computation/qchem166999/ 0
/scinet/niagara/software/commercial/qc52/exe/qcprog.exe_s fragments/A015/conf-2/spe_input.inp_166999.0 /gpfs/fs0/scratch/a/aspuru/rhickman/descriptor_computation/qchem166999/
                  Welcome to Q-Chem
     A Quantum Leap Into The Future Of Chemistry


 Q-Chem 5.2, Q-Chem, Inc., Pleasanton, CA (2019)

 License issued to: SRG Alan Aspuru-Guzik, University of Toronto

 Yihan Shao,  Zhengting Gan,  E. Epifanovsky,  A. T. B. Gilbert,  M. Wormit,  
 J. Kussmann,  A. W. Lange,  A. Behn,  Jia Deng,  Xintian Feng,  D. Ghosh,  
 M. Goldey,  P. R. Horn,  L. D. Jacobson,  I. Kaliman,  T. Kus,  A. Landau,  
 Jie Liu,  E. I. Proynov,  R. M. Richard,  R. P. Steele,  E. J. Sundstrom,  
 H. L. Woodcock III,  P. M. Zimmerman,  D. Zuev,  B. Albrecht,  E. Alguire,  
 S. A. Baeppler,  D. Barton,  Z. Benda,  Y. A. Bernard,  E. J. Berquist,  
 K. B. Bravaya,  H. Burton,  D. Casanova,  Chun-Min Chang,  Yunqing Chen,  
 A. Chien,  K. D. Closser,  M. P. Coons,  S. Coriani,  S. Dasgupta,  
 A. L. Dempwolff,  M. Diedenhofen,  Hainam Do,  R. G. Edgar,  Po-Tung Fang,  
 S. Faraji,  S. Fatehi,  Qingguo Feng,  K. D. Fenk,  J. Fosso-Tande,  
 J. Gayvert,  Qinghui Ge,  A. Ghysels,  G. Gidofalvi,  J. Gomes,  
 J. Gonthier,  A. Gunina,  D. Hait,  M. W. D. Hanson-Heine,  
 P. H. P. Harbach,  A. W. Hauser,  M. F. Herbst,  J. E. Herr,  
 E. G. Hohenstein,  Z. C. Holden,  Kerwin Hui,  B. C. Huynh,  T.-C. Jagau,  
 Hyunjun Ji,  B. Kaduk,  K. Khistyaev,  Jaehoon Kim,  P. Klunzinger,  K. Koh,  
 D. Kosenkov,  L. Koulias,  T. Kowalczyk,  C. M. Krauter,  A. Kunitsa,  
 Ka Un Lao,  A. Laurent,  K. V. Lawler,  Joonho Lee,  D. Lefrancois,  
 S. Lehtola,  D. S. Levine,  Yi-Pei Li,  You-Sheng Lin,  Fenglai Liu,  
 E. Livshits,  A. Luenser,  P. Manohar,  E. Mansoor,  S. F. Manzer,  
 Shan-Ping Mao,  Yuezhi Mao,  N. Mardirossian,  A. V. Marenich,  
 T. Markovich,  L. A. Martinez-Martinez,  S. A. Maurer,  N. J. Mayhall,  
 S. C. McKenzie,  J.-M. Mewes,  P. Morgante,  A. F. Morrison,  
 J. W. Mullinax,  K. Nanda,  T. S. Nguyen-Beck,  R. Olivares-Amaya,  
 J. A. Parkhill,  Zheng Pei,  T. M. Perrine,  F. Plasser,  P. Pokhilko,  
 S. Prager,  A. Prociuk,  E. Ramos,  D. R. Rehn,  F. Rob,  M. Scheurer,  
 M. Schneider,  N. Sergueev,  S. M. Sharada,  S. Sharma,  D. W. Small,  
 T. Stauch,  T. Stein,  Yu-Chuan Su,  A. J. W. Thom,  A. Tkatchenko,  
 T. Tsuchimochi,  N. M. Tubman,  L. Vogt,  M. L. Vidal,  O. Vydrov,  
 M. A. Watson,  J. Wenzel,  M. de Wergifosse,  T. A. Wesolowski,  A. White,  
 J. Witte,  A. Yamada,  Jun Yang,  K. Yao,  S. Yeganeh,  S. R. Yost,  
 Zhi-Qiang You,  A. Zech,  Igor Ying Zhang,  Xing Zhang,  Yan Zhao,  
 Ying Zhu,  B. R. Brooks,  G. K. L. Chan,  C. J. Cramer,  M. S. Gordon,  
 W. J. Hehre,  A. Klamt,  M. W. Schmidt,  C. D. Sherrill,  D. G. Truhlar,  
 A. Aspuru-Guzik,  R. Baer,  A. T. Bell,  N. A. Besley,  Jeng-Da Chai,  
 A. E. DePrince, III,  R. A. DiStasio Jr.,  A. Dreuw,  B. D. Dunietz,  
 T. R. Furlani,  Chao-Ping Hsu,  Yousung Jung,  Jing Kong,  D. S. Lambrecht,  
 WanZhen Liang,  C. Ochsenfeld,  V. A. Rassolov,  L. V. Slipchenko,  
 J. E. Subotnik,  T. Van Voorhis,  J. M. Herbert,  A. I. Krylov,  
 P. M. W. Gill,  M. Head-Gordon

 Contributors to earlier versions of Q-Chem not listed above: 
 R. D. Adamson,  B. Austin,  J. Baker,  G. J. O. Beran,  K. Brandhorst,  
 S. T. Brown,  E. F. C. Byrd,  A. K. Chakraborty,  C.-L. Cheng,  
 Siu Hung Chien,  D. M. Chipman,  D. L. Crittenden,  H. Dachsel,  
 R. J. Doerksen,  A. D. Dutoi,  L. Fusti-Molnar,  W. A. Goddard III,  
 A. Golubeva-Zadorozhnaya,  S. R. Gwaltney,  G. Hawkins,  A. Heyden,  
 S. Hirata,  G. Kedziora,  F. J. Keil,  C. Kelley,  Jihan Kim,  R. A. King,  
 R. Z. Khaliullin,  P. P. Korambath,  W. Kurlancheek,  A. M. Lee,  M. S. Lee,  
 S. V. Levchenko,  Ching Yeh Lin,  D. Liotard,  R. C. Lochan,  I. Lotan,  
 P. E. Maslen,  N. Nair,  D. P. O'Neill,  D. Neuhauser,  E. Neuscamman,  
 C. M. Oana,  R. Olson,  B. Peters,  R. Peverati,  P. A. Pieniazek,  
 Y. M. Rhee,  J. Ritchie,  M. A. Rohrdanz,  E. Rosta,  N. J. Russ,  
 H. F. Schaefer III,  N. E. Schultz,  N. Shenvi,  A. C. Simmonett,  A. Sodt,  
 D. Stuck,  K. S. Thanthiriwatte,  V. Vanovschi,  Tao Wang,  A. Warshel,  
 C. F. Williams,  Q. Wu,  X. Xu,  W. Zhang

 Please cite Q-Chem as follows:
 Y. Shao et al., Mol. Phys. 113, 184-215 (2015)
 DOI: 10.1080/00268976.2014.952696

 Q-Chem 5.2.1 for Intel X86 EM64T Linux

 Parts of Q-Chem use Armadillo 8.300.2 (Tropical Shenanigans).
 http://arma.sourceforge.net/

 Q-Chem begins on Mon Feb  7 18:30:05 2022  

Host: 
0

     Scratch files written to /gpfs/fs0/scratch/a/aspuru/rhickman/descriptor_computation/qchem166999//
 Jul1719 |scratch|qcdevops|jenkins|workspace|build_RNUM -1
Processing $rem in /scinet/niagara/software/commercial/qc52/config/preferences:
	 MEM_TOTAL  4000 
NAlpha2: 122
NElect   122
Mult     1

Checking the input file for inconsistencies... 	...done.

--------------------------------------------------------------
User input:
--------------------------------------------------------------
$molecule
0 1
C         3.54472653350000    0.78851901190000   -1.42023114680000
N         3.08593099970000    1.15997572370000   -0.09608518380000
C         1.73347814240000    0.99209438090000    0.18796252470000
C         0.92023017910000    2.03327222680000    0.58978872590000
C        -0.44605017040000    1.84155374940000    0.78336586650000
C        -1.04573384310000    0.62005313180000    0.56959827560000
C        -2.50431684840000    0.55506408160000    0.63612573360000
C        -3.29996083800000   -0.04996370930000   -0.22958300680000
F        -2.94142788130000   -0.73392380810000   -1.31251686590000
F        -4.63295689110000   -0.04116902160000   -0.14358474630000
C         1.17721166080000   -0.32542636210000    0.14062724390000
C        -0.22138446460000   -0.51164034140000    0.30980461010000
C        -0.72935283380000   -1.82694482830000    0.30687112420000
C         0.09106098150000   -2.90748202890000    0.13701496080000
C         1.47125554600000   -2.72535078330000   -0.00047902540000
C         1.99918053420000   -1.46362707050000    0.01192375260000
C         3.74729371040000    2.34451592120000    0.39621501730000
H         2.89368913720000    0.03433296600000   -1.85303258390000
H         4.56225589610000    0.39540305280000   -1.36254594180000
H         3.55113849520000    1.66020547680000   -2.08867783390000
H         1.31810423910000    3.02841975570000    0.70799092410000
H        -1.05761844390000    2.69456745010000    1.04072052380000
H        -2.99372947700000    1.12229985440000    1.41481067190000
H        -1.78208713430000   -1.98521564520000    0.47938405850000
H        -0.31960546290000   -3.90627930850000    0.14147961680000
H         2.11890179490000   -3.58513664940000   -0.08946649230000
H         3.06855643510000   -1.32989799050000   -0.02739786880000
H         4.82396383800000    2.17669174800000    0.34389108560000
H         3.47373780680000    2.51053903290000    1.43633288820000
H         3.51464290080000    3.24561612390000   -0.18836226210000
$end

$rem
BASIS = 6-31G*
GUI = 2
METHOD = B3LYP
PRINT_ORBITALS false
MOLDEN_FORMAT false
--------------------------------------------------------------
 ----------------------------------------------------------------
             Standard Nuclear Orientation (Angstroms)
    I     Atom           X                Y                Z
 ----------------------------------------------------------------
    1      C      -3.5062846696    -0.1614914243     1.4097559036
    2      N      -3.1363056519     0.4493287743     0.1480704542
    3      C      -1.7790609573     0.6100364670    -0.1166102093
    4      C      -1.2100599747     1.8408366604    -0.3778698851
    5      C       0.1656719218     1.9710245138    -0.5549657613
    6      C       1.0154635220     0.8908669059    -0.4627994598
    7      C       2.4535802285     1.1492450497    -0.4970767981
    8      C       3.3597478686     0.6343414143     0.3167377161
    9      F       3.1558667581    -0.2303186501     1.3066308955
   10      F       4.6593081250     0.9394935677     0.2679849901
   11      C      -0.9505104184    -0.5534952582    -0.2016505801
   12      C       0.4555273180    -0.4138156296    -0.3530283668
   13      C       1.2365356027    -1.5804953713    -0.4832236144
   14      C       0.6695296730    -2.8244030802    -0.4569848302
   15      C      -0.7175964593    -2.9604497140    -0.3370438897
   16      C      -1.5064530898    -1.8489411810    -0.2227663901
   17      C      -4.0377470603     1.5123188372    -0.2265641890
   18      H      -2.7080955874    -0.8025088926     1.7730108576
   19      H      -4.4142849324    -0.7550249815     1.2813534770
   20      H      -3.7028250123     0.6058477259     2.1708484749
   21      H      -1.8139621782     2.7339238287    -0.3949453085
   22      H       0.5782931049     2.9593815140    -0.6990967635
   23      H       2.8099303900     1.8939620271    -1.1942443262
   24      H       2.2988854721    -1.4877362266    -0.6440600760
   25      H       1.2869536131    -3.7042086373    -0.5618310388
   26      H      -1.1636369418    -3.9438248807    -0.3618901792
   27      H      -2.5794655928    -1.9538051993    -0.1974251160
   28      H      -5.0525367464     1.1119395038    -0.2221378011
   29      H      -3.8046309033     1.8514776251    -1.2339716862
   30      H      -4.0071201006     2.3692317777     0.4608954621
 ----------------------------------------------------------------
 Molecular Point Group                 C1    NOp =  1
 Largest Abelian Subgroup              C1    NOp =  1
 Nuclear Repulsion Energy =        1172.55030780 hartrees
 There are       61 alpha and       61 beta electrons
 Requested basis set is 6-31G(d)
 There are 94 shells and 281 basis functions

 Total QAlloc Memory Limit   4000 MB
 Mega-Array Size       188 MB
 MEM_STATIC part       192 MB
 A cutoff of  1.0D-08 yielded   2752 shell pairs
 There are     26646 function pairs
 Smallest overlap matrix eigenvalue = 2.38E-04

 Scale SEOQF with 1.000000e-01/1.000000e-01/1.000000e-01

 Standard Electronic Orientation quadrupole field applied
 Nucleus-field energy     =     0.0000000444 hartrees
 Guess from superposition of atomic densities
 Warning:  Energy on first SCF cycle will be non-variational
 SAD guess density has 122.000000 electrons

 -----------------------------------------------------------------------
  General SCF calculation program by
  Eric Jon Sundstrom, Paul Horn, Yuezhi Mao, Dmitri Zuev, Alec White,
  David Stuck, Shaama M.S., Shane Yost, Joonho Lee, David Small,
  Daniel Levine, Susi Lehtola, Hugh Burton, Evgeny Epifanovsky,
  Bang C. Huynh
 -----------------------------------------------------------------------
 Exchange:     0.2000 Hartree-Fock + 0.0800 Slater + 0.7200 B88
 Correlation:  0.1900 VWN1RPA + 0.8100 LYP
 Using SG-1 standard quadrature grid
 A restricted SCF calculation will be
 performed using DIIS
 SCF converges when DIIS error is below 1.0e-05
 ---------------------------------------
  Cycle       Energy         DIIS error
 ---------------------------------------
    1    -799.7999680221      4.84e-02  
    2    -795.4569283706      4.99e-03  
    3    -795.3086576625      6.34e-03  
    4    -795.6969054790      1.28e-03  
    5    -795.7124225401      4.26e-04  
    6    -795.7138822271      2.09e-04  
    7    -795.7143184649      6.11e-05  
    8    -795.7143505500      2.23e-05  
    9    -795.7143556169      6.13e-06  Convergence criterion met
 ---------------------------------------
 SCF time:   CPU 61.46s  wall 62.00s 
 SCF   energy in the final basis set =     -795.7143556169
 Total energy in the final basis set =     -795.7143556169
 
 --------------------------------------------------------------
 
                    Orbital Energies (a.u.)
 --------------------------------------------------------------
 
 Alpha MOs
 -- Occupied --
-24.7307 -24.7255 -14.3437 -10.3460 -10.2203 -10.2112 -10.2104 -10.1945
-10.1927 -10.1916 -10.1890 -10.1846 -10.1817 -10.1812 -10.1802 -10.1796
-10.1787  -1.2731  -1.2133  -0.9493  -0.8709  -0.8257  -0.7970  -0.7548
 -0.7416  -0.7235  -0.7128  -0.6641  -0.6218  -0.6153  -0.6119  -0.5756
 -0.5590  -0.5333  -0.5120  -0.5084  -0.5012  -0.4926  -0.4693  -0.4624
 -0.4563  -0.4340  -0.4323  -0.4283  -0.4212  -0.4122  -0.4071  -0.4028
 -0.4000  -0.3901  -0.3820  -0.3768  -0.3749  -0.3355  -0.3341  -0.3243
 -0.2985  -0.2509  -0.2417  -0.2357  -0.1832
 -- Virtual --
 -0.0345  -0.0022   0.0180   0.0633   0.0916   0.0987   0.1081   0.1134
  0.1306   0.1361   0.1467   0.1547   0.1576   0.1612   0.1734   0.1781
  0.1851   0.1925   0.2020   0.2092   0.2097   0.2213   0.2435   0.2788
  0.2817   0.3013   0.3184   0.3316   0.3350   0.3714   0.3817   0.4102
  0.4129   0.4755   0.4882   0.4966   0.5081   0.5148   0.5198   0.5294
  0.5361   0.5461   0.5554   0.5635   0.5713   0.5724   0.5822   0.5912
  0.5980   0.6072   0.6117   0.6201   0.6219   0.6245   0.6290   0.6422
  0.6498   0.6622   0.6780   0.6948   0.7138   0.7226   0.7263   0.7550
  0.7716   0.7906   0.8028   0.8112   0.8328   0.8396   0.8450   0.8512
  0.8549   0.8714   0.8738   0.8870   0.8966   0.9104   0.9156   0.9273
  0.9362   0.9496   0.9575   0.9645   0.9824   0.9984   1.0071   1.0271
  1.0381   1.0418   1.0703   1.0838   1.0895   1.1095   1.1183   1.1390
  1.1568   1.1823   1.1881   1.2041   1.2364   1.2453   1.2609   1.2656
  1.2972   1.3210   1.3300   1.3562   1.3643   1.3743   1.3806   1.4045
  1.4154   1.4296   1.4463   1.4571   1.4758   1.4777   1.5114   1.5164
  1.5451   1.5514   1.5655   1.5878   1.6243   1.6824   1.6860   1.7205
  1.7416   1.7579   1.7755   1.7969   1.8084   1.8252   1.8405   1.8459
  1.8605   1.8744   1.8836   1.9153   1.9281   1.9368   1.9450   1.9509
  1.9670   1.9868   2.0093   2.0150   2.0210   2.0342   2.0415   2.0576
  2.0718   2.0803   2.1096   2.1278   2.1329   2.1462   2.1623   2.1650
  2.2093   2.2195   2.2256   2.2533   2.2581   2.2660   2.2905   2.3058
  2.3247   2.3283   2.3418   2.3582   2.3791   2.4236   2.4641   2.4942
  2.5157   2.5368   2.5548   2.5748   2.6003   2.6288   2.6445   2.6753
  2.6840   2.6876   2.7039   2.7487   2.7575   2.7739   2.8057   2.8304
  2.8895   2.9224   2.9631   2.9920   3.0320   3.0559   3.1283   3.1746
  3.2490   3.4430   3.5196   4.0959   4.1039   4.1170   4.1305   4.1432
  4.1625   4.2044   4.2640   4.3016   4.3270   4.3585   4.3779   4.5183
  4.5574   4.7727   4.8641   5.2441
 --------------------------------------------------------------
 
          Ground-State Mulliken Net Atomic Charges

     Atom                 Charge (a.u.)
  ----------------------------------------
      1 C                    -0.323669
      2 N                    -0.460356
      3 C                     0.271824
      4 C                    -0.197963
      5 C                    -0.201169
      6 C                     0.123144
      7 C                    -0.345358
      8 C                     0.559417
      9 F                    -0.238221
     10 F                    -0.252378
     11 C                     0.085386
     12 C                     0.072896
     13 C                    -0.187753
     14 C                    -0.135583
     15 C                    -0.131003
     16 C                    -0.197030
     17 C                    -0.308502
     18 H                     0.177613
     19 H                     0.152413
     20 H                     0.139320
     21 H                     0.126196
     22 H                     0.125463
     23 H                     0.164174
     24 H                     0.128496
     25 H                     0.126691
     26 H                     0.124891
     27 H                     0.145712
     28 H                     0.154960
     29 H                     0.165772
     30 H                     0.134616
  ----------------------------------------
  Sum of atomic charges =     0.000000

 -----------------------------------------------------------------
                    Cartesian Multipole Moments
 -----------------------------------------------------------------
    Charge (ESU x 10^10)
                 0.0000
    Dipole Moment (Debye)
         X      -2.3551      Y       0.6502      Z      -0.0562
       Tot       2.4438
    Quadrupole Moments (Debye-Ang)
        XX     -91.6333     XY      -1.6868     YY     -88.8653
        XZ      -4.5721     YZ      -1.3987     ZZ     -99.2302
    Octopole Moments (Debye-Ang^2)
       XXX      -9.8511    XXY       4.2580    XYY      15.0268
       YYY      -0.5190    XXZ       2.4464    XYZ       1.6420
       YYZ      -2.5865    XZZ      15.6875    YZZ       6.9598
       ZZZ      19.0831
    Hexadecapole Moments (Debye-Ang^3)
      XXXX   -3602.4772   XXXY     -24.5909   XXYY    -814.7203
      XYYY      22.4064   YYYY   -1391.2122   XXXZ      -1.8151
      XXYZ     -12.4069   XYYZ       7.0474   YYYZ      -2.7571
      XXZZ    -654.0558   XYZZ      11.6582   YYZZ    -317.1250
      XZZZ      38.2931   YZZZ      -6.7257   ZZZZ    -331.5053
 -----------------------------------------------------------------
Archival summary:
1\1\nia1977.scinet.local\SP\ProcedureUnspecified\6-31G*\211413\rhickman\MonFeb718:31:072022MonFeb718:31:072022\0\\#,ProcedureUnspecified,6-31G*,\\0,1\F\C,1,1.33007\C,2,1.32233,1,127.31\H,3,1.08057,2,116.068,1,175.649,0\F,2,1.3358,1,108.953,3,179.061,0\C,3,1.46155,2,126.23,1,1.20816,0\C,6,1.37745,3,117.829,2,133.76,0\H,7,1.08068,6,119.376,3,3.0872,0\C,7,1.39318,6,121.831,3,-172.508,0\H,9,1.07824,7,118.272,6,175.848,0\C,9,1.3809,7,120.946,6,-0.776525,0\N,11,1.39212,9,122.724,7,175.925,0\C,6,1.424,3,123.414,2,-46.8824,0\C,13,1.40999,6,122.221,3,-10.4105,0\H,14,1.07845,13,119.225,6,1.74711,0\C,14,1.36729,13,121.419,6,-175.92,0\H,16,1.07994,14,120.147,13,179.798,0\C,16,1.39893,14,120.087,13,1.84135,0\H,18,1.08009,16,119.739,14,177.237,0\C,18,1.36777,16,120.001,14,-1.12096,0\H,20,1.07842,18,119.788,16,175.887,0\C,20,1.40986,18,121.367,16,-0.999639,0\C,12,1.44322,11,118.332,9,17.8731,0\H,23,1.08823,12,109.637,11,45.5729,0\H,23,1.09093,12,108.038,11,163.647,0\H,23,1.09902,12,113.235,11,-76.7435,0\C,12,1.44977,11,117.575,9,-121.992,0\H,27,1.08626,12,110.618,11,-25.6791,0\H,27,1.09235,12,109.801,11,-146.316,0\H,27,1.0985,12,110.751,11,94.2558,0\\\@

 Total job time:  62.13s(wall), 61.70s(cpu) 
 Mon Feb  7 18:31:07 2022

        *************************************************************
        *                                                           *
        *  Thank you very much for using Q-Chem.  Have a nice day.  *
        *                                                           *
        *************************************************************


