
Running Job 1 of 1 fragments/A007/conf-0/spe_input.inp
qchem fragments/A007/conf-0/spe_input.inp_310989.0 /gpfs/fs0/scratch/a/aspuru/rhickman/descriptor_computation/qchem310989/ 0
/scinet/niagara/software/commercial/qc52/exe/qcprog.exe_s fragments/A007/conf-0/spe_input.inp_310989.0 /gpfs/fs0/scratch/a/aspuru/rhickman/descriptor_computation/qchem310989/
                  Welcome to Q-Chem
     A Quantum Leap Into The Future Of Chemistry


 Q-Chem 5.2, Q-Chem, Inc., Pleasanton, CA (2019)

 License issued to: SRG Alan Aspuru-Guzik, University of Toronto

 Yihan Shao,  Zhengting Gan,  E. Epifanovsky,  A. T. B. Gilbert,  M. Wormit,  
 J. Kussmann,  A. W. Lange,  A. Behn,  Jia Deng,  Xintian Feng,  D. Ghosh,  
 M. Goldey,  P. R. Horn,  L. D. Jacobson,  I. Kaliman,  T. Kus,  A. Landau,  
 Jie Liu,  E. I. Proynov,  R. M. Richard,  R. P. Steele,  E. J. Sundstrom,  
 H. L. Woodcock III,  P. M. Zimmerman,  D. Zuev,  B. Albrecht,  E. Alguire,  
 S. A. Baeppler,  D. Barton,  Z. Benda,  Y. A. Bernard,  E. J. Berquist,  
 K. B. Bravaya,  H. Burton,  D. Casanova,  Chun-Min Chang,  Yunqing Chen,  
 A. Chien,  K. D. Closser,  M. P. Coons,  S. Coriani,  S. Dasgupta,  
 A. L. Dempwolff,  M. Diedenhofen,  Hainam Do,  R. G. Edgar,  Po-Tung Fang,  
 S. Faraji,  S. Fatehi,  Qingguo Feng,  K. D. Fenk,  J. Fosso-Tande,  
 J. Gayvert,  Qinghui Ge,  A. Ghysels,  G. Gidofalvi,  J. Gomes,  
 J. Gonthier,  A. Gunina,  D. Hait,  M. W. D. Hanson-Heine,  
 P. H. P. Harbach,  A. W. Hauser,  M. F. Herbst,  J. E. Herr,  
 E. G. Hohenstein,  Z. C. Holden,  Kerwin Hui,  B. C. Huynh,  T.-C. Jagau,  
 Hyunjun Ji,  B. Kaduk,  K. Khistyaev,  Jaehoon Kim,  P. Klunzinger,  K. Koh,  
 D. Kosenkov,  L. Koulias,  T. Kowalczyk,  C. M. Krauter,  A. Kunitsa,  
 Ka Un Lao,  A. Laurent,  K. V. Lawler,  Joonho Lee,  D. Lefrancois,  
 S. Lehtola,  D. S. Levine,  Yi-Pei Li,  You-Sheng Lin,  Fenglai Liu,  
 E. Livshits,  A. Luenser,  P. Manohar,  E. Mansoor,  S. F. Manzer,  
 Shan-Ping Mao,  Yuezhi Mao,  N. Mardirossian,  A. V. Marenich,  
 T. Markovich,  L. A. Martinez-Martinez,  S. A. Maurer,  N. J. Mayhall,  
 S. C. McKenzie,  J.-M. Mewes,  P. Morgante,  A. F. Morrison,  
 J. W. Mullinax,  K. Nanda,  T. S. Nguyen-Beck,  R. Olivares-Amaya,  
 J. A. Parkhill,  Zheng Pei,  T. M. Perrine,  F. Plasser,  P. Pokhilko,  
 S. Prager,  A. Prociuk,  E. Ramos,  D. R. Rehn,  F. Rob,  M. Scheurer,  
 M. Schneider,  N. Sergueev,  S. M. Sharada,  S. Sharma,  D. W. Small,  
 T. Stauch,  T. Stein,  Yu-Chuan Su,  A. J. W. Thom,  A. Tkatchenko,  
 T. Tsuchimochi,  N. M. Tubman,  L. Vogt,  M. L. Vidal,  O. Vydrov,  
 M. A. Watson,  J. Wenzel,  M. de Wergifosse,  T. A. Wesolowski,  A. White,  
 J. Witte,  A. Yamada,  Jun Yang,  K. Yao,  S. Yeganeh,  S. R. Yost,  
 Zhi-Qiang You,  A. Zech,  Igor Ying Zhang,  Xing Zhang,  Yan Zhao,  
 Ying Zhu,  B. R. Brooks,  G. K. L. Chan,  C. J. Cramer,  M. S. Gordon,  
 W. J. Hehre,  A. Klamt,  M. W. Schmidt,  C. D. Sherrill,  D. G. Truhlar,  
 A. Aspuru-Guzik,  R. Baer,  A. T. Bell,  N. A. Besley,  Jeng-Da Chai,  
 A. E. DePrince, III,  R. A. DiStasio Jr.,  A. Dreuw,  B. D. Dunietz,  
 T. R. Furlani,  Chao-Ping Hsu,  Yousung Jung,  Jing Kong,  D. S. Lambrecht,  
 WanZhen Liang,  C. Ochsenfeld,  V. A. Rassolov,  L. V. Slipchenko,  
 J. E. Subotnik,  T. Van Voorhis,  J. M. Herbert,  A. I. Krylov,  
 P. M. W. Gill,  M. Head-Gordon

 Contributors to earlier versions of Q-Chem not listed above: 
 R. D. Adamson,  B. Austin,  J. Baker,  G. J. O. Beran,  K. Brandhorst,  
 S. T. Brown,  E. F. C. Byrd,  A. K. Chakraborty,  C.-L. Cheng,  
 Siu Hung Chien,  D. M. Chipman,  D. L. Crittenden,  H. Dachsel,  
 R. J. Doerksen,  A. D. Dutoi,  L. Fusti-Molnar,  W. A. Goddard III,  
 A. Golubeva-Zadorozhnaya,  S. R. Gwaltney,  G. Hawkins,  A. Heyden,  
 S. Hirata,  G. Kedziora,  F. J. Keil,  C. Kelley,  Jihan Kim,  R. A. King,  
 R. Z. Khaliullin,  P. P. Korambath,  W. Kurlancheek,  A. M. Lee,  M. S. Lee,  
 S. V. Levchenko,  Ching Yeh Lin,  D. Liotard,  R. C. Lochan,  I. Lotan,  
 P. E. Maslen,  N. Nair,  D. P. O'Neill,  D. Neuhauser,  E. Neuscamman,  
 C. M. Oana,  R. Olson,  B. Peters,  R. Peverati,  P. A. Pieniazek,  
 Y. M. Rhee,  J. Ritchie,  M. A. Rohrdanz,  E. Rosta,  N. J. Russ,  
 H. F. Schaefer III,  N. E. Schultz,  N. Shenvi,  A. C. Simmonett,  A. Sodt,  
 D. Stuck,  K. S. Thanthiriwatte,  V. Vanovschi,  Tao Wang,  A. Warshel,  
 C. F. Williams,  Q. Wu,  X. Xu,  W. Zhang

 Please cite Q-Chem as follows:
 Y. Shao et al., Mol. Phys. 113, 184-215 (2015)
 DOI: 10.1080/00268976.2014.952696

 Q-Chem 5.2.1 for Intel X86 EM64T Linux

 Parts of Q-Chem use Armadillo 8.300.2 (Tropical Shenanigans).
 http://arma.sourceforge.net/

 Q-Chem begins on Tue Feb  8 13:57:00 2022  

Host: 
0

     Scratch files written to /gpfs/fs0/scratch/a/aspuru/rhickman/descriptor_computation/qchem310989//
 Jul1719 |scratch|qcdevops|jenkins|workspace|build_RNUM -1
Processing $rem in /scinet/niagara/software/commercial/qc52/config/preferences:
	 MEM_TOTAL  4000 
NAlpha2: 198
NElect   198
Mult     1

Checking the input file for inconsistencies... 	...done.

--------------------------------------------------------------
User input:
--------------------------------------------------------------
$molecule
0 1
F        -2.55596125560000   -6.17748982670000    0.14739857550000
C        -2.07139418790000   -4.93419575730000    0.11007448000000
F        -0.74446320120000   -4.99500799910000    0.04718585920000
C        -2.84263602160000   -3.85705404580000    0.13323762060000
C        -2.45001057420000   -2.45874456010000    0.09713599860000
C        -1.12145310520000   -2.04139575300000    0.06617686330000
C        -0.84390724110000   -0.68591226410000    0.02696457400000
C         0.38295041450000    0.06285591500000    0.00647570670000
C         1.71939115120000   -0.30441993280000   -0.00778368200000
C         2.69288453050000    0.68554228330000   -0.04534271230000
C         4.11929858440000    0.32695549720000   -0.05234453360000
C         4.57940336330000   -0.74159657280000   -0.81859614460000
C         5.92016699480000   -1.07776224750000   -0.82578064650000
C         6.82391992450000   -0.35547209630000   -0.06474180610000
C         6.37764459430000    0.70705249330000    0.70297373950000
C         5.03780465530000    1.04719145470000    0.70801651330000
C         2.30920361540000    2.03310300820000   -0.08797461090000
C         0.98490317750000    2.42033470610000   -0.08076853040000
C         0.01796606790000    1.42768850330000   -0.01456728330000
N        -1.36002615060000    1.53366282100000   -0.01387661420000
C        -2.08995527780000    2.73175586070000   -0.03178324970000
C        -3.10443884940000    2.91804749010000   -0.96591981240000
C        -3.82376333820000    4.09875240260000   -0.97614977860000
C        -3.53279050330000    5.10213053850000   -0.06687344690000
C        -2.51985350280000    4.91958085630000    0.85989431560000
C        -1.80150015730000    3.73853696240000    0.88458008940000
C        -1.89244698200000    0.26492385090000    0.00904685290000
C        -3.21851548100000   -0.14417259110000    0.06589808350000
C        -3.47573125900000   -1.49684268820000    0.10559479060000
H        -3.90300702270000   -4.05931378170000    0.18295263490000
H        -0.31125083000000   -2.75085344150000    0.07834871970000
H         1.99721769760000   -1.34673005070000    0.02786507860000
H         3.88222106170000   -1.29845248240000   -1.42772272070000
H         6.26272236570000   -1.90573349270000   -1.42952039820000
H         7.87118983960000   -0.61948661460000   -0.06962452470000
H         7.07718228500000    1.27165871840000    1.30253907010000
H         4.69379735170000    1.86627269470000    1.32311941990000
H         3.07664991670000    2.79010858120000   -0.15368958270000
H         0.71407875160000    3.46380581910000   -0.13905461380000
H        -3.31294838590000    2.14221586660000   -1.68745291740000
H        -4.60970455980000    4.23885659580000   -1.70334204570000
H        -4.09391444730000    6.02413394730000   -0.08061653560000
H        -2.29259778960000    5.69775198070000    1.57329089830000
H        -1.02562678220000    3.58318805240000    1.61926166920000
H        -4.02546798870000    0.57226652520000    0.08998022080000
H        -4.50115995500000   -1.83342323630000    0.14754010010000
$end

$rem
BASIS = 6-31G*
GUI = 2
METHOD = B3LYP
PRINT_ORBITALS false
MOLDEN_FORMAT false
--------------------------------------------------------------
 ----------------------------------------------------------------
             Standard Nuclear Orientation (Angstroms)
    I     Atom           X                Y                Z
 ----------------------------------------------------------------
    1      F      -2.1504123610    -6.4109703813     0.1739804501
    2      C      -1.7518273970    -5.1376598463     0.1316864546
    3      F      -0.4239316792    -5.1080507077     0.0667617877
    4      C      -2.5947051421    -4.1155510323     0.1525537277
    5      C      -2.2984186419    -2.6938530986     0.1111196602
    6      C      -1.0014667029    -2.1869780741     0.0765245637
    7      C      -0.8170752645    -0.8158652788     0.0323171101
    8      C       0.3558245892     0.0147557002     0.0072569931
    9      C       1.7141810535    -0.2605672098    -0.0080313158
   10      C       2.6178314125     0.7933466019    -0.0505393816
   11      C       4.0653695105     0.5328536363    -0.0587510496
   12      C       4.5961672127    -0.5044665227    -0.8222051428
   13      C       5.9567249336    -0.7484326711    -0.8305298113
   14      C       6.8102167114     0.0364304670    -0.0734339279
   15      C       6.2936294748     1.0686854250     0.6914808787
   16      C       4.9337191780     1.3166711982     0.6976490052
   17      C       2.1430719466     2.1114479126    -0.0970239463
   18      C       0.7954561389     2.4074837411    -0.0888760345
   19      C      -0.1014284581     1.3514380756    -0.0177280541
   20      N      -1.4834372924     1.3631888327    -0.0150655534
   21      C      -2.2934078623     2.5086425828    -0.0357414454
   22      C      -3.3195941540     2.6220918832    -0.9687814000
   23      C      -4.1177876568     3.7509477893    -0.9817405026
   24      C      -3.8946041132     4.7749623889    -0.0763126881
   25      C      -2.8702267384     4.6651154244     0.8493486309
   26      C      -2.0729579474     3.5359049272     0.8767662112
   27      C      -1.9280500333     0.0611795423     0.0129936618
   28      C      -3.2230439523    -0.4372033808     0.0734489106
   29      C      -3.3873438502    -1.8041211772     0.1180970695
   30      H      -3.6387382514    -4.3894841863     0.2047335813
   31      H      -0.1447457138    -2.8394822442     0.0896983042
   32      H       2.0625029842    -1.2813737493     0.0306293542
   33      H       3.9377025664    -1.1096698869    -1.4282909857
   34      H       6.3540749073    -1.5531902158    -1.4320782677
   35      H       7.8730467616    -0.1555611752    -0.0792024405
   36      H       6.9539014907     1.6817486916     1.2879756834
   37      H       4.5355435425     2.1124996379     1.3105926781
   38      H       2.8570030677     2.9187994704    -0.1665619707
   39      H       0.4540078681     3.4298480745    -0.1501895643
   40      H      -3.4757529519     1.8313637802    -1.6873664356
   41      H      -4.9125125002     3.8346173305    -1.7080690874
   42      H      -4.5173260212     5.6564977778    -0.0921878958
   43      H      -2.6955368505     5.4594280024     1.5597577481
   44      H      -1.2872268244     3.4363654473     1.6106519625
   45      H      -4.0769461243     0.2226125248     0.0965001087
   46      H      -4.3873660260    -2.2097053340     0.1628968975
 ----------------------------------------------------------------
 Molecular Point Group                 C1    NOp =  1
 Largest Abelian Subgroup              C1    NOp =  1
 Nuclear Repulsion Energy =        2423.25923091 hartrees
 There are       99 alpha and       99 beta electrons
 Requested basis set is 6-31G(d)
 There are 150 shells and 469 basis functions

 Total QAlloc Memory Limit   4000 MB
 Mega-Array Size       188 MB
 MEM_STATIC part       192 MB
 A cutoff of  1.0D-08 yielded   4544 shell pairs
 There are     48052 function pairs
 Smallest overlap matrix eigenvalue = 2.51E-04

 Scale SEOQF with 1.000000e-02/1.000000e-02/1.000000e-01

 Standard Electronic Orientation quadrupole field applied
 Nucleus-field energy     =     0.0000000145 hartrees
 Guess from superposition of atomic densities
 Warning:  Energy on first SCF cycle will be non-variational
 SAD guess density has 198.000000 electrons

 -----------------------------------------------------------------------
  General SCF calculation program by
  Eric Jon Sundstrom, Paul Horn, Yuezhi Mao, Dmitri Zuev, Alec White,
  David Stuck, Shaama M.S., Shane Yost, Joonho Lee, David Small,
  Daniel Levine, Susi Lehtola, Hugh Burton, Evgeny Epifanovsky,
  Bang C. Huynh
 -----------------------------------------------------------------------
 Exchange:     0.2000 Hartree-Fock + 0.0800 Slater + 0.7200 B88
 Correlation:  0.1900 VWN1RPA + 0.8100 LYP
 Using SG-1 standard quadrature grid
 A restricted SCF calculation will be
 performed using DIIS
 SCF converges when DIIS error is below 1.0e-05
 ---------------------------------------
  Cycle       Energy         DIIS error
 ---------------------------------------
    1   -1263.2059493172      3.85e-02  
    2   -1255.0464499198      3.66e-03  
    3   -1254.8340219104      4.65e-03  
    4   -1255.3940363252      1.28e-03  
    5   -1255.4375054464      4.11e-04  
    6   -1255.4415723776      2.01e-04  
    7   -1255.4426991260      4.86e-05  
    8   -1255.4427583947      2.11e-05  
    9   -1255.4427712782      4.55e-06  Convergence criterion met
 ---------------------------------------
 SCF time:   CPU 162.31s  wall 162.00s 
 SCF   energy in the final basis set =    -1255.4427712782
 Total energy in the final basis set =    -1255.4427712782
 
 --------------------------------------------------------------
 
                    Orbital Energies (a.u.)
 --------------------------------------------------------------
 
 Alpha MOs
 -- Occupied --
-24.7376 -24.7264 -14.3865 -10.3476 -10.2400 -10.2243 -10.2234 -10.2005
-10.2004 -10.1997 -10.1996 -10.1981 -10.1971 -10.1967 -10.1895 -10.1888
-10.1888 -10.1879 -10.1878 -10.1874 -10.1868 -10.1862 -10.1857 -10.1852
-10.1819 -10.1817 -10.1804 -10.1801 -10.1798  -1.2773  -1.2166  -1.0060
 -0.8806  -0.8651  -0.8573  -0.8436  -0.8082  -0.7899  -0.7686  -0.7626
 -0.7577  -0.7430  -0.7360  -0.7208  -0.7092  -0.6610  -0.6400  -0.6273
 -0.6232  -0.6111  -0.6028  -0.5887  -0.5816  -0.5744  -0.5618  -0.5467
 -0.5294  -0.5235  -0.5140  -0.5113  -0.5065  -0.4791  -0.4760  -0.4688
 -0.4546  -0.4512  -0.4484  -0.4418  -0.4390  -0.4379  -0.4339  -0.4326
 -0.4308  -0.4234  -0.4194  -0.4145  -0.4127  -0.4048  -0.3856  -0.3829
 -0.3752  -0.3713  -0.3689  -0.3630  -0.3579  -0.3492  -0.3427  -0.3374
 -0.3316  -0.3293  -0.2947  -0.2806  -0.2673  -0.2656  -0.2487  -0.2468
 -0.2326  -0.2097  -0.1895
 -- Virtual --
 -0.0297  -0.0213  -0.0193  -0.0127   0.0019   0.0061   0.0319   0.0521
  0.0829   0.0855   0.0911   0.1024   0.1166   0.1262   0.1326   0.1379
  0.1430   0.1462   0.1498   0.1590   0.1625   0.1662   0.1721   0.1776
  0.1799   0.1834   0.1858   0.1932   0.1986   0.2047   0.2082   0.2095
  0.2223   0.2329   0.2577   0.2707   0.2785   0.2799   0.2813   0.2991
  0.3052   0.3124   0.3183   0.3227   0.3341   0.3416   0.3508   0.3548
  0.3692   0.3755   0.3932   0.4004   0.4166   0.4456   0.4561   0.4648
  0.4698   0.4818   0.4962   0.5031   0.5124   0.5165   0.5226   0.5309
  0.5332   0.5365   0.5454   0.5474   0.5479   0.5528   0.5555   0.5589
  0.5637   0.5657   0.5682   0.5757   0.5791   0.5822   0.5839   0.5848
  0.5877   0.5922   0.5944   0.6003   0.6016   0.6049   0.6068   0.6094
  0.6111   0.6148   0.6179   0.6213   0.6232   0.6278   0.6332   0.6375
  0.6387   0.6424   0.6498   0.6596   0.6672   0.6774   0.6848   0.6955
  0.7042   0.7139   0.7248   0.7279   0.7595   0.7777   0.7861   0.7877
  0.7988   0.8031   0.8087   0.8245   0.8261   0.8302   0.8350   0.8366
  0.8392   0.8445   0.8490   0.8511   0.8531   0.8623   0.8677   0.8742
  0.8805   0.8890   0.8996   0.9015   0.9100   0.9153   0.9199   0.9409
  0.9430   0.9550   0.9643   0.9672   0.9718   0.9771   0.9827   0.9908
  1.0047   1.0096   1.0219   1.0322   1.0327   1.0505   1.0697   1.0780
  1.0837   1.0934   1.1071   1.1287   1.1288   1.1456   1.1493   1.1553
  1.1662   1.1690   1.1704   1.1789   1.1919   1.1982   1.1985   1.2183
  1.2225   1.2315   1.2373   1.2448   1.2476   1.2668   1.2904   1.3016
  1.3126   1.3260   1.3340   1.3470   1.3550   1.3592   1.3796   1.3897
  1.4070   1.4105   1.4228   1.4303   1.4337   1.4426   1.4451   1.4568
  1.4635   1.4666   1.4682   1.4737   1.4791   1.4858   1.4890   1.4969
  1.4997   1.5012   1.5021   1.5051   1.5179   1.5231   1.5800   1.6040
  1.6269   1.6409   1.6667   1.6839   1.6978   1.7107   1.7274   1.7566
  1.7615   1.7729   1.7800   1.7954   1.7975   1.8012   1.8086   1.8180
  1.8261   1.8338   1.8436   1.8459   1.8531   1.8643   1.8776   1.8846
  1.8883   1.8956   1.9015   1.9150   1.9222   1.9313   1.9334   1.9446
  1.9457   1.9630   1.9766   1.9824   1.9938   1.9988   2.0081   2.0131
  2.0319   2.0429   2.0474   2.0661   2.0733   2.0767   2.0842   2.0917
  2.1043   2.1060   2.1252   2.1360   2.1463   2.1528   2.1565   2.1602
  2.1644   2.1735   2.1848   2.1964   2.2079   2.2199   2.2219   2.2437
  2.2536   2.2573   2.2720   2.2834   2.2897   2.3044   2.3075   2.3101
  2.3248   2.3272   2.3311   2.3431   2.3565   2.3743   2.4014   2.4025
  2.4352   2.4354   2.4688   2.5061   2.5261   2.5284   2.5482   2.5589
  2.5651   2.5885   2.5977   2.6027   2.6105   2.6316   2.6457   2.6612
  2.6692   2.6778   2.6789   2.6906   2.7137   2.7222   2.7362   2.7396
  2.7471   2.7514   2.7613   2.7640   2.7693   2.7784   2.7999   2.8206
  2.8303   2.8547   2.8666   2.8799   2.9150   2.9412   2.9574   2.9783
  2.9915   3.0169   3.0700   3.1446   3.1722   3.2067   3.2645   3.2973
  3.3840   3.4083   3.4585   3.4900   3.5793   4.0859   4.0905   4.0995
  4.1092   4.1122   4.1191   4.1252   4.1296   4.1463   4.1615   4.1720
  4.1853   4.1965   4.2806   4.3075   4.3395   4.3426   4.3469   4.3957
  4.4057   4.4856   4.5050   4.5479   4.7043   4.7407   4.7819   4.8230
  4.9026   5.2892
 --------------------------------------------------------------
 
          Ground-State Mulliken Net Atomic Charges

     Atom                 Charge (a.u.)
  ----------------------------------------
      1 F                    -0.254149
      2 C                     0.539647
      3 F                    -0.238718
      4 C                    -0.302613
      5 C                     0.185372
      6 C                    -0.270444
      7 C                     0.060864
      8 C                     0.066144
      9 C                    -0.253570
     10 C                     0.079837
     11 C                     0.086805
     12 C                    -0.170277
     13 C                    -0.133570
     14 C                    -0.125292
     15 C                    -0.133481
     16 C                    -0.172361
     17 C                    -0.190135
     18 C                    -0.178810
     19 C                     0.315215
     20 N                    -0.735982
     21 C                     0.277125
     22 C                    -0.154885
     23 C                    -0.140726
     24 C                    -0.120558
     25 C                    -0.140664
     26 C                    -0.154800
     27 C                     0.317537
     28 C                    -0.174362
     29 C                    -0.209360
     30 H                     0.155642
     31 H                     0.141791
     32 H                     0.137621
     33 H                     0.129612
     34 H                     0.127095
     35 H                     0.125271
     36 H                     0.126217
     37 H                     0.127578
     38 H                     0.131338
     39 H                     0.141468
     40 H                     0.152352
     41 H                     0.137858
     42 H                     0.133972
     43 H                     0.137936
     44 H                     0.152737
     45 H                     0.141982
     46 H                     0.125743
  ----------------------------------------
  Sum of atomic charges =     0.000000

 -----------------------------------------------------------------
                    Cartesian Multipole Moments
 -----------------------------------------------------------------
    Charge (ESU x 10^10)
                 0.0000
    Dipole Moment (Debye)
         X      -1.7393      Y       2.8568      Z      -0.0348
       Tot       3.3448
    Quadrupole Moments (Debye-Ang)
        XX    -144.6951     XY      -6.9410     YY    -156.1227
        XZ       3.1524     YZ       4.7859     ZZ    -164.0515
    Octopole Moments (Debye-Ang^2)
       XXX     -20.9389    XXY     -12.4629    XYY     -31.3908
       YYY      39.1212    XXZ     -11.5088    XYZ      22.8676
       YYZ      15.5366    XZZ     -11.2643    YZZ     -24.1999
       ZZZ       1.2580
    Hexadecapole Moments (Debye-Ang^3)
      XXXX  -10070.4027   XXXY      19.8419   XXYY   -2870.1386
      XYYY    -179.0339   YYYY   -7888.5527   XXXZ     135.7307
      XXYZ      42.8464   XYYZ       2.2785   YYYZ      97.3081
      XXZZ   -1921.3476   XYZZ       6.2006   YYZZ   -1343.6549
      XZZZ      12.6901   YZZZ       3.5296   ZZZZ    -423.7781
 -----------------------------------------------------------------
Archival summary:
1\1\nia2015.scinet.local\SP\ProcedureUnspecified\6-31G*\212617\rhickman\TueFeb813:59:442022TueFeb813:59:442022\0\\#,ProcedureUnspecified,6-31G*,\\0,1\N\C,1,1.37612\C,1,1.38206,2,108.365\C,3,1.38733,1,129.798,2,177.459,0\H,4,1.07962,3,121.285,1,0.282783,0\C,4,1.37977,3,117.93,1,-178.868,0\H,6,1.07998,4,119.055,3,179.112,0\C,2,1.3889,1,129.914,3,177.453,0\H,8,1.07937,2,121.279,1,0.647124,0\C,8,1.37748,2,117.95,1,-178.656,0\H,10,1.08007,8,118.974,2,-179.85,0\C,6,1.40177,4,122.164,3,0.689962,0\C,12,1.38893,6,119.615,4,0.658039,0\H,13,1.07929,12,120.584,6,-179.841,0\C,13,1.38606,12,119.158,6,-0.934638,0\C,1,1.40305,2,125.889,3,-179.925,0\C,16,1.39158,1,120.142,2,-50.9036,0\H,17,1.07982,16,119.547,1,-1.1306,0\C,17,1.3826,16,119.906,1,179.774,0\H,19,1.07988,17,119.632,16,179.966,0\C,19,1.385,17,120.299,16,0.485093,0\H,21,1.07942,19,120.082,17,179.749,0\C,21,1.38501,19,119.832,17,-0.238686,0\H,23,1.07988,21,120.065,19,-179.741,0\C,23,1.38257,21,120.3,19,-0.244312,0\H,25,1.07975,23,120.557,21,-178.644,0\C,10,1.40621,8,122.367,2,0.324531,0\C,27,1.39291,10,119.4,8,0.906252,0\H,28,1.07699,27,121.326,10,178.788,0\C,28,1.38416,27,119.032,10,-0.827905,0\C,27,1.45283,10,117.458,8,-179.61,0\H,31,1.08063,27,116.517,10,-1.10804,0\C,31,1.32498,27,128.66,10,178.705,0\F,33,1.32981,31,128.23,27,-0.0357514,0\F,33,1.33491,31,123.05,27,-179.938,0\C,12,1.47081,6,119.979,4,-179.871,0\C,36,1.39303,12,120.717,6,41.7935,0\H,37,1.08055,36,119.519,12,1.13986,0\C,37,1.38235,36,120.655,12,179.844,0\H,39,1.08056,37,119.794,36,-179.642,0\C,39,1.38474,37,120.212,36,0.205592,0\H,41,1.08005,39,120.17,37,179.885,0\C,41,1.38479,39,119.642,37,-0.131976,0\H,43,1.08045,41,119.992,39,179.79,0\C,43,1.38228,41,120.22,39,-0.0720118,0\H,45,1.08036,43,119.845,41,178.951,0\\\@

 Total job time:  163.81s(wall), 162.83s(cpu) 
 Tue Feb  8 13:59:44 2022

        *************************************************************
        *                                                           *
        *  Thank you very much for using Q-Chem.  Have a nice day.  *
        *                                                           *
        *************************************************************


