
Running Job 1 of 1 tidas/B052/conf-0/spe_input.inp
qchem tidas/B052/conf-0/spe_input.inp_239643.0 /home/a/aspuru/seifridm/acdc_laser/descriptor_computation/qchem239643/ 0
/gpfs/fs1/scinet/niagara/software/commercial/qc54/exe/qcprog.exe_s tidas/B052/conf-0/spe_input.inp_239643.0 /home/a/aspuru/seifridm/acdc_laser/descriptor_computation/qchem239643/
                  Welcome to Q-Chem
     A Quantum Leap Into The Future Of Chemistry


 Q-Chem 5.4, Q-Chem, Inc., Pleasanton, CA (2021)

 License issued to: SRG Alan Aspuru-Guzik, University of Toronto

 E. Epifanovsky,  A. T. B. Gilbert,  Xintian Feng,  Joonho Lee,  Yuezhi Mao,  
 N. Mardirossian,  P. Pokhilko,  A. White,  M. Wormit,  M. P. Coons,  
 A. L. Dempwolff,  Zhengting Gan,  D. Hait,  P. R. Horn,  L. D. Jacobson,  
 I. Kaliman,  J. Kussmann,  A. W. Lange,  Ka Un Lao,  D. S. Levine,  Jie Liu,  
 S. C. McKenzie,  A. F. Morrison,  K. Nanda,  F. Plasser,  D. R. Rehn,  
 M. L. Vidal,  Zhi-Qiang You,  Ying Zhu,  B. Alam,  B. Albrecht,  
 A. Aldossary,  E. Alguire,  J. H. Andersen,  D. Barton,  K. Begam,  A. Behn,  
 Y. A. Bernard,  E. J. Berquist,  H. Burton,  A. Carreras,  K. Carter-Fenk,  
 Romit Chakraborty,  A. D. Chien,  K. D. Closser,  V. Cofer-Shabica,  
 S. Dasgupta,  Jia Deng,  M. de Wergifosse,  M. Diedenhofen,  Hainam Do,  
 S. Ehlert,  Po-Tung Fang,  S. Fatehi,  Qingguo Feng,  T. Friedhoff,  
 J. Gayvert,  Qinghui Ge,  G. Gidofalvi,  M. Goldey,  J. Gomes,  
 C. Gonzalez-Espinoza,  S. Gulania,  A. Gunina,  M. W. D. Hanson-Heine,  
 P. H. P. Harbach,  A. W. Hauser,  M. F. Herbst,  M. Hernandez Vera,  
 M. Hodecker,  Z. C. Holden,  S. Houck,  Xunkun Huang,  Kerwin Hui,  
 B. C. Huynh,  M. Ivanov,  Hyunjun Ji,  Hanjie Jiang,  B. Kaduk,  S. Kaehler,  
 K. Khistyaev,  Jaehoon Kim,  P. Klunzinger,  Z. Koczor-Benda,  
 Joong Hoon Koh,  D. Kosenkov,  L. Koulias,  T. Kowalczyk,  C. M. Krauter,  
 K. Kue,  A. Kunitsa,  T. Kus,  A. Landau,  K. V. Lawler,  D. Lefrancois,  
 S. Lehtola,  Rain Li,  Yi-Pei Li,  Jiashu Liang,  M. Liebenthal,  
 Hung-Hsuan Lin,  You-Sheng Lin,  Fenglai Liu,  Kuan-Yu Liu,  
 M. Loipersberger,  A. Luenser,  A. Manjanath,  P. Manohar,  E. Mansoor,  
 S. F. Manzer,  Shan-Ping Mao,  A. V. Marenich,  T. Markovich,  S. Mason,  
 S. A. Maurer,  P. F. McLaughlin,  M. F. S. J. Menger,  J.-M. Mewes,  
 S. A. Mewes,  P. Morgante,  J. W. Mullinax,  K. J. Oosterbaan,  G. Paran,  
 Alexander C. Paul,  Suranjan K. Paul,  F. Pavosevic,  Zheng Pei,  S. Prager,  
 E. I. Proynov,  E. Ramos,  B. Rana,  A. E. Rask,  A. Rettig,  R. M. Richard,  
 F. Rob,  E. Rossomme,  T. Scheele,  M. Scheurer,  M. Schneider,  
 N. Sergueev,  S. M. Sharada,  W. Skomorowski,  D. W. Small,  C. J. Stein,  
 Yu-Chuan Su,  E. J. Sundstrom,  Zhen Tao,  J. Thirman,  T. Tsuchimochi,  
 N. M. Tubman,  S. P. Veccham,  O. Vydrov,  J. Wenzel,  J. Witte,  A. Yamada,  
 Kun Yao,  S. Yeganeh,  S. R. Yost,  A. Zech,  Igor Ying Zhang,  Xing Zhang,  
 Yu Zhang,  D. Zuev,  A. Aspuru-Guzik,  A. T. Bell,  N. A. Besley,  
 K. B. Bravaya,  B. R. Brooks,  D. Casanova,  Jeng-Da Chai,  S. Coriani,  
 C. J. Cramer,  A. E. DePrince, III,  R. A. DiStasio Jr.,  A. Dreuw,  
 B. D. Dunietz,  T. R. Furlani,  W. A. Goddard III,  S. Grimme,  
 S. Hammes-Schiffer,  T. Head-Gordon,  W. J. Hehre,  Chao-Ping Hsu,  
 T.-C. Jagau,  Yousung Jung,  A. Klamt,  Jing Kong,  D. S. Lambrecht,  
 WanZhen Liang,  N. J. Mayhall,  C. W. McCurdy,  J. B. Neaton,  T. Neudecker,  
 C. Ochsenfeld,  J. A. Parkhill,  R. Peverati,  V. A. Rassolov,  Yihan Shao,  
 L. V. Slipchenko,  R. P. Steele,  J. E. Subotnik,  A. J. W. Thom,  
 A. Tkatchenko,  D. G. Truhlar,  T. Van Voorhis,  T. A. Wesolowski,  
 K. B. Whaley,  H. L. Woodcock III,  P. M. Zimmerman,  S. Faraji,  
 P. M. W. Gill,  M. Head-Gordon,  J. M. Herbert,  A. I. Krylov

 Additional authors since Version 5.4.0: 
 Chandrima Chakravarty,  L. Cunha,  R. Kang,  Yongbin Kim,  S. Kotaru,  
 Shaozhi Li,  Xiangyuan Li,  F. Matz,  A. Molle,  V. Parravicini,  
 Haisheng Ren,  Hengyuan Shen,  Yingli Su,  Hung-Yi Tsai,  C. Utku,  
 Fang Wang,  Jeff Yang,  F. Zeller

 Contributors to earlier versions of Q-Chem not listed above: 
 R. D. Adamson,  B. Austin,  R. Baer,  J. Baker,  G. J. O. Beran,  
 K. Brandhorst,  S. T. Brown,  E. F. C. Byrd,  Arup K. Chakraborty,  
 G. K. L. Chan,  Chun-Min Chang,  Yunqing Chen,  C.-L. Cheng,  
 Siu Hung Chien,  D. M. Chipman,  D. L. Crittenden,  H. Dachsel,  
 R. J. Doerksen,  A. D. Dutoi,  R. G. Edgar,  J. Fosso-Tande,  
 L. Fusti-Molnar,  D. Ghosh,  A. Ghysels,  A. Golubeva-Zadorozhnaya,  
 J. Gonthier,  M. S. Gordon,  S. R. Gwaltney,  G. Hawkins,  J. E. Herr,  
 A. Heyden,  S. Hirata,  E. G. Hohenstein,  G. Kedziora,  F. J. Keil,  
 C. Kelley,  Jihan Kim,  R. A. King,  R. Z. Khaliullin,  P. P. Korambath,  
 W. Kurlancheek,  A. Laurent,  A. M. Lee,  M. S. Lee,  S. V. Levchenko,  
 Ching Yeh Lin,  D. Liotard,  E. Livshits,  R. C. Lochan,  I. Lotan,  
 L. A. Martinez-Martinez,  P. E. Maslen,  N. Nair,  D. P. O'Neill,  
 D. Neuhauser,  E. Neuscamman,  C. M. Oana,  R. Olivares-Amaya,  R. Olson,  
 T. M. Perrine,  B. Peters,  P. A. Pieniazek,  A. Prociuk,  Y. M. Rhee,  
 J. Ritchie,  M. A. Rohrdanz,  E. Rosta,  N. J. Russ,  H. F. Schaefer III,  
 M. W. Schmidt,  N. E. Schultz,  S. Sharma,  N. Shenvi,  C. D. Sherrill,  
 A. C. Simmonett,  A. Sodt,  T. Stein,  D. Stuck,  K. S. Thanthiriwatte,  
 V. Vanovschi,  L. Vogt,  Tao Wang,  A. Warshel,  M. A. Watson,  
 C. F. Williams,  Q. Wu,  X. Xu,  Jun Yang,  W. Zhang,  Yan Zhao

   Please cite Q-Chem as follows:
  "Software for the frontiers of quantum chemistry:
   An overview of developments in the Q-Chem 5 package"
   J. Chem. Phys. 155, 084801 (2021)
   https://doi.org/10.1063/5.0055522 (open access)

 Q-Chem 5.4.2 for Intel X86 EM64T Linux

 Parts of Q-Chem use Armadillo 9.900.5 (Nocturnal Misbehaviour).
 http://arma.sourceforge.net/

 Q-Chem begins on Fri Aug 12 12:43:23 2022  

 Host: 
0

     Scratch files written to /home/a/aspuru/seifridm/acdc_laser/descriptor_computation/qchem239643//
 Dec1321 |scratch|qcdevops|jenkins|workspace|build_RNUM 6959   
 Processing $rem in /gpfs/fs1/scinet/niagara/software/commercial/qc54/config/preferences:
 Processing $rem in /home/a/aspuru/seifridm/.qchemrc:

 Checking the input file for inconsistencies... 	...done.

--------------------------------------------------------------
User input:
--------------------------------------------------------------
$molecule
0 1
C            0.19148632010000       -3.78383057650000       -0.32263040920000
C            0.94480269670000       -2.85146737460000        0.24391427120000
C            0.70262415910000       -1.41216584340000        0.13143699480000
C           -0.58913629450000       -0.94301555810000        0.11879037190000
C           -0.89617158640000        0.43164977920000        0.05027241240000
C           -2.25078063380000        0.95626606260000        0.03661823060000
C           -3.39044591620000        0.28228952570000       -0.00242585620000
F           -3.56409313470000       -1.03403658810000       -0.03896400050000
F           -4.58243016310000        0.87293535170000       -0.01479110920000
C            0.16382726030000        1.31531412820000        0.00895994580000
F           -0.08519846320000        2.64376764190000       -0.04047745460000
C            1.50918067640000        0.90106535380000        0.00935899470000
C            2.56884909090000        1.83104761360000       -0.05321755150000
C            3.86544359200000        1.40186549350000       -0.07703990960000
C            4.15005223280000        0.02976775750000       -0.04760237930000
C            3.13976273280000       -0.89150611530000        0.01762794990000
C            1.78926827590000       -0.49113528430000        0.06273189510000
H            0.40025707100000       -4.83207572440000       -0.19538875780000
H           -0.64976422380000       -3.53712583920000       -0.94828025720000
H            1.79672905370000       -3.14527563940000        0.84210167590000
H           -1.39543718950000       -1.65294273210000        0.19136992520000
H           -2.34912394100000        2.03229591950000        0.05047654320000
H            2.33210509240000        2.88378437110000       -0.08713976650000
H            4.67495094860000        2.11443597510000       -0.12562610760000
H            5.17831449150000       -0.29879631290000       -0.08067342080000
H            3.37986733840000       -1.94307427680000        0.02255561730000
$end

$rem
BASIS = 6-31G*
GUI = 2
METHOD = B3LYP
PRINT_ORBITALS false
MOLDEN_FORMAT false
$end
--------------------------------------------------------------
 ----------------------------------------------------------------
             Standard Nuclear Orientation (Angstroms)
    I     Atom           X                Y                Z
 ----------------------------------------------------------------
    1      C      -0.0933857711    -3.7396804931     0.3166527811
    2      C      -0.8490829687    -2.8083894571    -0.2484828929
    3      C      -0.6103740916    -1.3686565155    -0.1341255215
    4      C       0.6802466985    -0.8963898253    -0.1211199012
    5      C       0.9839596503     0.4789235325    -0.0508220937
    6      C       2.3372944589     1.0068071931    -0.0367476600
    7      C       3.4786002436     0.3355469132     0.0011536778
    8      F       3.6554491313    -0.9804016883     0.0358895307
    9      F       4.6691502218     0.9290668925     0.0140618044
   10      C      -0.0781717177     1.3599564119    -0.0081023213
   11      F       0.1676399274     2.6889429192     0.0430650914
   12      C      -1.4225159411     0.9424445242    -0.0087755085
   13      C      -2.4844247608     1.8697674225     0.0552703923
   14      C      -3.7799688255     1.4374081052     0.0787883503
   15      C      -4.0612531167     0.0646643614     0.0475696864
   16      C      -3.0487447623    -0.8540664697    -0.0191079768
   17      C      -1.6992355071    -0.4503589735    -0.0639574357
   18      H      -0.2996391021    -4.7882576729     0.1880486758
   19      H       0.7473965725    -3.4917739642     0.9424569365
   20      H      -1.7004209469    -3.1034620712    -0.8468855873
   21      H       1.4882526016    -1.6042600052    -0.1948205537
   22      H       2.4330232539     2.0830901819    -0.0491830007
   23      H      -2.2502290017     2.9230292316     0.0905553179
   24      H      -4.5911926955     2.1479459762     0.1284998869
   25      H      -5.0887079459    -0.2664384399     0.0804151386
   26      H      -3.2862977912    -1.9062067264    -0.0253961103
 ----------------------------------------------------------------
 Molecular Point Group                 C1    NOp =  1
 Largest Abelian Subgroup              C1    NOp =  1
 Nuclear Repulsion Energy =        1121.64101282 hartrees
 There are       60 alpha and       60 beta electrons
 Requested basis set is 6-31G(d)
 There are 86 shells and 273 basis functions

 Total QAlloc Memory Limit   8000 MB
 Mega-Array Size       188 MB
 MEM_STATIC part       192 MB
 A cutoff of  1.0D-08 yielded   2229 shell pairs
 There are     24266 function pairs
 Smallest overlap matrix eigenvalue = 2.27E-04

 Scale SEOQF with 1.000000e-01/1.000000e-01/1.000000e+00

 Standard Electronic Orientation quadrupole field applied
 Nucleus-field energy     =     0.0000000518 hartrees
 Guess from superposition of atomic densities
 Warning:  Energy on first SCF cycle will be non-variational
 SAD guess density has 120.000000 electrons

 -----------------------------------------------------------------------
  General SCF calculation program by
  Eric Jon Sundstrom, Paul Horn, Yuezhi Mao, Dmitri Zuev, Alec White,
  David Stuck, Shaama M.S., Shane Yost, Joonho Lee, David Small,
  Daniel Levine, Susi Lehtola, Hugh Burton, Evgeny Epifanovsky,
  Bang C. Huynh
 -----------------------------------------------------------------------
 Exchange:     0.2000 Hartree-Fock + 0.0800 Slater + 0.7200 B88
 Correlation:  0.1900 VWN1RPA + 0.8100 LYP
 Using SG-1 standard quadrature grid
 A restricted SCF calculation will be
 performed using DIIS
 SCF converges when DIIS error is below 1.0e-05
 ---------------------------------------
  Cycle       Energy         DIIS error
 ---------------------------------------
    1    -842.4189992047      4.85e-02  
    2    -838.1472166099      5.03e-03  
    3    -837.9930229015      6.47e-03  
    4    -838.3785723494      1.11e-03  
    5    -838.3891234859      3.74e-04  
    6    -838.3900734003      1.91e-04  
    7    -838.3904109027      5.20e-05  
    8    -838.3904360749      1.99e-05  
    9    -838.3904404130      4.75e-06  Convergence criterion met
 ---------------------------------------
 SCF time:   CPU 85.81s  wall 96.00s 
 SCF   energy in the final basis set =     -838.3904404130
 Total energy in the final basis set =     -838.3904404130
 
 --------------------------------------------------------------
 
                    Orbital Energies (a.u.)
 --------------------------------------------------------------
 
 Alpha MOs
 -- Occupied --
-24.7468 -24.7364 -24.7169 -10.3598 -10.2747 -10.2137 -10.2059 -10.2053
-10.2047 -10.2007 -10.1946 -10.1946 -10.1942 -10.1939 -10.1935 -10.1932
-10.1836  -1.2881  -1.2271  -1.2270  -0.8906  -0.8466  -0.8162  -0.7904
 -0.7593  -0.7460  -0.7192  -0.6558  -0.6425  -0.6208  -0.6160  -0.5792
 -0.5656  -0.5494  -0.5409  -0.5216  -0.5149  -0.4943  -0.4793  -0.4699
 -0.4689  -0.4533  -0.4433  -0.4424  -0.4370  -0.4272  -0.4207  -0.4130
 -0.3952  -0.3905  -0.3887  -0.3699  -0.3489  -0.3441  -0.3383  -0.3109
 -0.2794  -0.2648  -0.2359  -0.2058
 -- Virtual --
 -0.0516  -0.0294   0.0009   0.0330   0.0685   0.0978   0.1085   0.1177
  0.1180   0.1234   0.1408   0.1495   0.1580   0.1772   0.1811   0.1961
  0.2093   0.2148   0.2272   0.2665   0.2686   0.2841   0.3102   0.3259
  0.3378   0.3492   0.3614   0.3855   0.4172   0.4214   0.4633   0.4817
  0.4874   0.4948   0.5068   0.5166   0.5279   0.5432   0.5445   0.5508
  0.5559   0.5615   0.5717   0.5741   0.5825   0.5913   0.5988   0.6037
  0.6124   0.6150   0.6180   0.6251   0.6311   0.6467   0.6718   0.6801
  0.6926   0.6990   0.7287   0.7385   0.7744   0.7824   0.8081   0.8238
  0.8300   0.8318   0.8461   0.8505   0.8614   0.8653   0.8800   0.8917
  0.9116   0.9282   0.9453   0.9543   0.9739   0.9748   1.0002   1.0342
  1.0459   1.0560   1.0653   1.0909   1.1260   1.1442   1.1464   1.1569
  1.1626   1.1866   1.1970   1.2087   1.2200   1.2318   1.2513   1.2571
  1.2706   1.2786   1.3046   1.3293   1.3571   1.3831   1.3952   1.4064
  1.4255   1.4375   1.4419   1.4514   1.4652   1.4797   1.4847   1.4965
  1.5035   1.5252   1.5454   1.5590   1.5925   1.6239   1.6523   1.6866
  1.7033   1.7503   1.7561   1.7764   1.7834   1.7851   1.7876   1.8050
  1.8146   1.8349   1.8388   1.8453   1.8523   1.8763   1.9031   1.9218
  1.9278   1.9396   1.9630   1.9728   1.9786   1.9913   2.0126   2.0144
  2.0240   2.0335   2.0564   2.0998   2.1180   2.1286   2.1462   2.1533
  2.1722   2.1930   2.2164   2.2303   2.2469   2.2561   2.2775   2.2823
  2.3069   2.3165   2.3492   2.3509   2.3607   2.4016   2.4581   2.4762
  2.4985   2.5099   2.5279   2.5424   2.6043   2.6109   2.6269   2.6609
  2.6742   2.6918   2.6987   2.7370   2.7700   2.7791   2.8260   2.8316
  2.8811   2.8920   2.9416   3.0297   3.0351   3.0699   3.0910   3.1772
  3.2077   3.2867   3.4469   3.5264   4.0674   4.0863   4.1012   4.1060
  4.1273   4.1338   4.1571   4.2396   4.2741   4.3252   4.3868   4.4979
  4.5746   4.7657   4.8428   5.2958   5.6956
 --------------------------------------------------------------
 
          Ground-State Mulliken Net Atomic Charges

     Atom                 Charge (a.u.)
  ----------------------------------------
      1 C                    -0.335970
      2 C                    -0.133378
      3 C                     0.118986
      4 C                    -0.285037
      5 C                     0.136370
      6 C                    -0.296556
      7 C                     0.548051
      8 F                    -0.234385
      9 F                    -0.245409
     10 C                     0.211559
     11 F                    -0.286146
     12 C                     0.062894
     13 C                    -0.181193
     14 C                    -0.134012
     15 C                    -0.127952
     16 C                    -0.199727
     17 C                     0.082551
     18 H                     0.144200
     19 H                     0.148392
     20 H                     0.140007
     21 H                     0.146928
     22 H                     0.174939
     23 H                     0.144638
     24 H                     0.133978
     25 H                     0.132113
     26 H                     0.134159
  ----------------------------------------
  Sum of atomic charges =     0.000000

 -----------------------------------------------------------------
                    Cartesian Multipole Moments
 -----------------------------------------------------------------
    Charge (ESU x 10^10)
                 0.0000
    Dipole Moment (Debye)
         X      -1.5215      Y      -0.6006      Z      -0.0651
       Tot       1.6371
    Quadrupole Moments (Debye-Ang)
        XX     -88.9445     XY      -0.0916     YY     -88.6496
        XZ       0.7794     YZ       0.3157     ZZ     -96.7583
    Octopole Moments (Debye-Ang^2)
       XXX       1.8525    XXY       9.9790    XYY      10.9512
       YYY       5.1766    XXZ       0.4659    XYZ      -4.8767
       YYZ       0.2486    XZZ      31.3914    YZZ       7.3325
       ZZZ       0.9814
    Hexadecapole Moments (Debye-Ang^3)
      XXXX   -3500.3412   XXXY     -22.6664   XXYY    -839.8554
      XYYY       4.7578   YYYY   -1617.0098   XXXZ      -6.2123
      XXYZ       7.1654   XYYZ      12.6893   YYYZ       0.8403
      XXZZ    -640.1018   XYZZ       4.4050   YYZZ    -317.1565
      XZZZ       4.4054   YZZZ       1.0641   ZZZZ    -107.3329
 -----------------------------------------------------------------
 Total job time:  98.41s(wall), 86.46s(cpu) 
 Fri Aug 12 12:45:01 2022

        *************************************************************
        *                                                           *
        *  Thank you very much for using Q-Chem.  Have a nice day.  *
        *                                                           *
        *************************************************************


