
Running Job 1 of 1 fragments/C049/conf-2/spe_input.inp
qchem fragments/C049/conf-2/spe_input.inp_339850.0 /gpfs/fs0/scratch/a/aspuru/rhickman/descriptor_computation/qchem339850/ 0
/scinet/niagara/software/commercial/qc52/exe/qcprog.exe_s fragments/C049/conf-2/spe_input.inp_339850.0 /gpfs/fs0/scratch/a/aspuru/rhickman/descriptor_computation/qchem339850/
                  Welcome to Q-Chem
     A Quantum Leap Into The Future Of Chemistry


 Q-Chem 5.2, Q-Chem, Inc., Pleasanton, CA (2019)

 License issued to: SRG Alan Aspuru-Guzik, University of Toronto

 Yihan Shao,  Zhengting Gan,  E. Epifanovsky,  A. T. B. Gilbert,  M. Wormit,  
 J. Kussmann,  A. W. Lange,  A. Behn,  Jia Deng,  Xintian Feng,  D. Ghosh,  
 M. Goldey,  P. R. Horn,  L. D. Jacobson,  I. Kaliman,  T. Kus,  A. Landau,  
 Jie Liu,  E. I. Proynov,  R. M. Richard,  R. P. Steele,  E. J. Sundstrom,  
 H. L. Woodcock III,  P. M. Zimmerman,  D. Zuev,  B. Albrecht,  E. Alguire,  
 S. A. Baeppler,  D. Barton,  Z. Benda,  Y. A. Bernard,  E. J. Berquist,  
 K. B. Bravaya,  H. Burton,  D. Casanova,  Chun-Min Chang,  Yunqing Chen,  
 A. Chien,  K. D. Closser,  M. P. Coons,  S. Coriani,  S. Dasgupta,  
 A. L. Dempwolff,  M. Diedenhofen,  Hainam Do,  R. G. Edgar,  Po-Tung Fang,  
 S. Faraji,  S. Fatehi,  Qingguo Feng,  K. D. Fenk,  J. Fosso-Tande,  
 J. Gayvert,  Qinghui Ge,  A. Ghysels,  G. Gidofalvi,  J. Gomes,  
 J. Gonthier,  A. Gunina,  D. Hait,  M. W. D. Hanson-Heine,  
 P. H. P. Harbach,  A. W. Hauser,  M. F. Herbst,  J. E. Herr,  
 E. G. Hohenstein,  Z. C. Holden,  Kerwin Hui,  B. C. Huynh,  T.-C. Jagau,  
 Hyunjun Ji,  B. Kaduk,  K. Khistyaev,  Jaehoon Kim,  P. Klunzinger,  K. Koh,  
 D. Kosenkov,  L. Koulias,  T. Kowalczyk,  C. M. Krauter,  A. Kunitsa,  
 Ka Un Lao,  A. Laurent,  K. V. Lawler,  Joonho Lee,  D. Lefrancois,  
 S. Lehtola,  D. S. Levine,  Yi-Pei Li,  You-Sheng Lin,  Fenglai Liu,  
 E. Livshits,  A. Luenser,  P. Manohar,  E. Mansoor,  S. F. Manzer,  
 Shan-Ping Mao,  Yuezhi Mao,  N. Mardirossian,  A. V. Marenich,  
 T. Markovich,  L. A. Martinez-Martinez,  S. A. Maurer,  N. J. Mayhall,  
 S. C. McKenzie,  J.-M. Mewes,  P. Morgante,  A. F. Morrison,  
 J. W. Mullinax,  K. Nanda,  T. S. Nguyen-Beck,  R. Olivares-Amaya,  
 J. A. Parkhill,  Zheng Pei,  T. M. Perrine,  F. Plasser,  P. Pokhilko,  
 S. Prager,  A. Prociuk,  E. Ramos,  D. R. Rehn,  F. Rob,  M. Scheurer,  
 M. Schneider,  N. Sergueev,  S. M. Sharada,  S. Sharma,  D. W. Small,  
 T. Stauch,  T. Stein,  Yu-Chuan Su,  A. J. W. Thom,  A. Tkatchenko,  
 T. Tsuchimochi,  N. M. Tubman,  L. Vogt,  M. L. Vidal,  O. Vydrov,  
 M. A. Watson,  J. Wenzel,  M. de Wergifosse,  T. A. Wesolowski,  A. White,  
 J. Witte,  A. Yamada,  Jun Yang,  K. Yao,  S. Yeganeh,  S. R. Yost,  
 Zhi-Qiang You,  A. Zech,  Igor Ying Zhang,  Xing Zhang,  Yan Zhao,  
 Ying Zhu,  B. R. Brooks,  G. K. L. Chan,  C. J. Cramer,  M. S. Gordon,  
 W. J. Hehre,  A. Klamt,  M. W. Schmidt,  C. D. Sherrill,  D. G. Truhlar,  
 A. Aspuru-Guzik,  R. Baer,  A. T. Bell,  N. A. Besley,  Jeng-Da Chai,  
 A. E. DePrince, III,  R. A. DiStasio Jr.,  A. Dreuw,  B. D. Dunietz,  
 T. R. Furlani,  Chao-Ping Hsu,  Yousung Jung,  Jing Kong,  D. S. Lambrecht,  
 WanZhen Liang,  C. Ochsenfeld,  V. A. Rassolov,  L. V. Slipchenko,  
 J. E. Subotnik,  T. Van Voorhis,  J. M. Herbert,  A. I. Krylov,  
 P. M. W. Gill,  M. Head-Gordon

 Contributors to earlier versions of Q-Chem not listed above: 
 R. D. Adamson,  B. Austin,  J. Baker,  G. J. O. Beran,  K. Brandhorst,  
 S. T. Brown,  E. F. C. Byrd,  A. K. Chakraborty,  C.-L. Cheng,  
 Siu Hung Chien,  D. M. Chipman,  D. L. Crittenden,  H. Dachsel,  
 R. J. Doerksen,  A. D. Dutoi,  L. Fusti-Molnar,  W. A. Goddard III,  
 A. Golubeva-Zadorozhnaya,  S. R. Gwaltney,  G. Hawkins,  A. Heyden,  
 S. Hirata,  G. Kedziora,  F. J. Keil,  C. Kelley,  Jihan Kim,  R. A. King,  
 R. Z. Khaliullin,  P. P. Korambath,  W. Kurlancheek,  A. M. Lee,  M. S. Lee,  
 S. V. Levchenko,  Ching Yeh Lin,  D. Liotard,  R. C. Lochan,  I. Lotan,  
 P. E. Maslen,  N. Nair,  D. P. O'Neill,  D. Neuhauser,  E. Neuscamman,  
 C. M. Oana,  R. Olson,  B. Peters,  R. Peverati,  P. A. Pieniazek,  
 Y. M. Rhee,  J. Ritchie,  M. A. Rohrdanz,  E. Rosta,  N. J. Russ,  
 H. F. Schaefer III,  N. E. Schultz,  N. Shenvi,  A. C. Simmonett,  A. Sodt,  
 D. Stuck,  K. S. Thanthiriwatte,  V. Vanovschi,  Tao Wang,  A. Warshel,  
 C. F. Williams,  Q. Wu,  X. Xu,  W. Zhang

 Please cite Q-Chem as follows:
 Y. Shao et al., Mol. Phys. 113, 184-215 (2015)
 DOI: 10.1080/00268976.2014.952696

 Q-Chem 5.2.1 for Intel X86 EM64T Linux

 Parts of Q-Chem use Armadillo 8.300.2 (Tropical Shenanigans).
 http://arma.sourceforge.net/

 Q-Chem begins on Tue Feb  8 15:33:28 2022  

Host: 
0

     Scratch files written to /gpfs/fs0/scratch/a/aspuru/rhickman/descriptor_computation/qchem339850//
 Jul1719 |scratch|qcdevops|jenkins|workspace|build_RNUM -1
Processing $rem in /scinet/niagara/software/commercial/qc52/config/preferences:
	 MEM_TOTAL  4000 
NAlpha2: 110
NElect   110
Mult     1

Checking the input file for inconsistencies... 	...done.

--------------------------------------------------------------
User input:
--------------------------------------------------------------
$molecule
0 1
C        -3.93228437500000   -1.90894420720000    0.35774402970000
C        -2.62669395430000   -1.86659236240000    0.12285767110000
C        -1.80037881490000   -0.66672933500000    0.03920153900000
C        -2.33496001140000    0.61372704960000   -0.04634132670000
C        -1.52299841340000    1.74436945730000   -0.11915918640000
C        -2.15026464280000    3.05921808080000   -0.20421824340000
C        -1.53404748050000    4.23374342990000   -0.15741423710000
C        -0.14036623380000    1.57290781880000   -0.11239740860000
C         0.39375784050000    0.29867955450000   -0.03537446520000
O         1.80508249030000    0.25704146040000   -0.04256122600000
C         2.44142160300000   -0.89001102000000    0.01069719340000
F         2.20587123130000   -1.60976229280000    1.12436799850000
F         2.17808085980000   -1.72425365970000   -1.01321495290000
F         3.75088034430000   -0.65844935210000   -0.01842656020000
C        -0.41011704540000   -0.82094024750000    0.03748942180000
H        -4.45958533540000   -2.84577291010000    0.40814858500000
H        -4.52586769890000   -1.02553462020000    0.51890914360000
H        -2.08598013940000   -2.79544287910000   -0.00716454880000
H        -3.40613740470000    0.74174491710000   -0.06452959410000
H        -3.22816256290000    3.03528069800000   -0.30481032220000
H        -0.46799361570000    4.33007392410000   -0.04604278200000
H        -2.08544824710000    5.15571276540000   -0.22451579740000
H         0.53544855110000    2.40807749010000   -0.17598792930000
H         0.00344393090000   -1.81519071490000    0.09785397810000
$end

$rem
BASIS = 6-31G*
GUI = 2
METHOD = B3LYP
PRINT_ORBITALS false
MOLDEN_FORMAT false
--------------------------------------------------------------
 ----------------------------------------------------------------
             Standard Nuclear Orientation (Angstroms)
    I     Atom           X                Y                Z
 ----------------------------------------------------------------
    1      C       2.6322670159    -3.3931314422    -0.1347705668
    2      C       1.4661118648    -2.7916508070     0.0648160954
    3      C       1.2197450201    -1.3534117360     0.0493857676
    4      C       2.2425624279    -0.4119775147     0.0638546122
    5      C       1.9801329050     0.9568216437     0.0425018365
    6      C       3.1015095848     1.8905470985     0.0565013120
    7      C       3.0345422365     3.2087590214    -0.0822672096
    8      C       0.6530768384     1.3801159872     0.0131649286
    9      C      -0.3666680549     0.4447237996     0.0067979975
   10      O      -1.6652411758     0.9985501054    -0.0178377523
   11      C      -2.7243026635     0.2227667431    -0.0113370909
   12      F      -2.8182830236    -0.6052499513    -1.0693279132
   13      F      -2.8297521186    -0.5713975705     1.0712009766
   14      F      -3.8156949963     0.9828218726    -0.0295076822
   15      C      -0.1069561097    -0.9107121382     0.0271843494
   16      H       2.7177072327    -4.4656784197    -0.1107311992
   17      H       3.5407942160    -2.8531086504    -0.3389312041
   18      H       0.5863521676    -3.3971294339     0.2421829393
   19      H       3.2687297886    -0.7433800717     0.0998169318
   20      H       4.0704760967     1.4244986982     0.1847919126
   21      H       2.1066357229     3.7346405026    -0.2257669569
   22      H       3.9221614171     3.8172864380    -0.0622808683
   23      H       0.3902501499     2.4237338225     0.0053097761
   24      H      -0.8997325313    -1.6419368173     0.0220300642
 ----------------------------------------------------------------
 Molecular Point Group                 C1    NOp =  1
 Largest Abelian Subgroup              C1    NOp =  1
 Nuclear Repulsion Energy =         978.97566394 hartrees
 There are       55 alpha and       55 beta electrons
 Requested basis set is 6-31G(d)
 There are 78 shells and 243 basis functions

 Total QAlloc Memory Limit   4000 MB
 Mega-Array Size       188 MB
 MEM_STATIC part       192 MB
 A cutoff of  1.0D-08 yielded   1870 shell pairs
 There are     19524 function pairs
 Smallest overlap matrix eigenvalue = 3.67E-04

 Scale SEOQF with 1.000000e-01/1.000000e-01/1.000000e+00

 Standard Electronic Orientation quadrupole field applied
 Nucleus-field energy     =     0.0000000243 hartrees
 Guess from superposition of atomic densities
 Warning:  Energy on first SCF cycle will be non-variational
 SAD guess density has 110.000000 electrons

 -----------------------------------------------------------------------
  General SCF calculation program by
  Eric Jon Sundstrom, Paul Horn, Yuezhi Mao, Dmitri Zuev, Alec White,
  David Stuck, Shaama M.S., Shane Yost, Joonho Lee, David Small,
  Daniel Levine, Susi Lehtola, Hugh Burton, Evgeny Epifanovsky,
  Bang C. Huynh
 -----------------------------------------------------------------------
 Exchange:     0.2000 Hartree-Fock + 0.0800 Slater + 0.7200 B88
 Correlation:  0.1900 VWN1RPA + 0.8100 LYP
 Using SG-1 standard quadrature grid
 A restricted SCF calculation will be
 performed using DIIS
 SCF converges when DIIS error is below 1.0e-05
 ---------------------------------------
  Cycle       Energy         DIIS error
 ---------------------------------------
    1    -802.6186440046      5.09e-02  
    2    -799.0382449920      6.33e-03  
    3    -798.9158896871      8.16e-03  
    4    -799.2897510665      1.16e-03  
    5    -799.2977973289      4.11e-04  
    6    -799.2988117084      1.87e-04  
    7    -799.2990718713      3.68e-05  
    8    -799.2990802510      1.49e-05  
    9    -799.2990817517      2.59e-06  Convergence criterion met
 ---------------------------------------
 SCF time:   CPU 36.46s  wall 37.00s 
 SCF   energy in the final basis set =     -799.2990817517
 Total energy in the final basis set =     -799.2990817517
 
 --------------------------------------------------------------
 
                    Orbital Energies (a.u.)
 --------------------------------------------------------------
 
 Alpha MOs
 -- Occupied --
-24.7296 -24.7278 -24.7277 -19.2242 -10.4821 -10.2733 -10.2118 -10.2115
-10.2035 -10.2017 -10.2003 -10.2001 -10.1968 -10.1902 -10.1900  -1.3264
 -1.2260  -1.2211  -1.1216  -0.8858  -0.8178  -0.8038  -0.7562  -0.7409
 -0.7009  -0.6524  -0.6490  -0.6221  -0.6021  -0.5993  -0.5519  -0.5498
 -0.5241  -0.5085  -0.4736  -0.4707  -0.4675  -0.4620  -0.4569  -0.4416
 -0.4360  -0.4332  -0.4204  -0.4086  -0.4015  -0.3969  -0.3878  -0.3792
 -0.3737  -0.3657  -0.3520  -0.3284  -0.2858  -0.2403  -0.2329
 -- Virtual --
 -0.0500  -0.0314   0.0316   0.0740   0.0856   0.0985   0.1140   0.1211
  0.1301   0.1618   0.1701   0.1811   0.1889   0.1981   0.2023   0.2062
  0.2266   0.2411   0.2661   0.2757   0.3026   0.3154   0.3436   0.3665
  0.3810   0.4029   0.4214   0.4269   0.4708   0.4722   0.4974   0.5047
  0.5224   0.5272   0.5305   0.5426   0.5463   0.5631   0.5693   0.5775
  0.5909   0.6008   0.6043   0.6138   0.6190   0.6302   0.6591   0.6670
  0.6788   0.6969   0.7064   0.7529   0.7805   0.8113   0.8162   0.8240
  0.8491   0.8598   0.8705   0.8788   0.8881   0.9028   0.9381   0.9533
  0.9591   0.9707   0.9776   0.9823   1.0009   1.0240   1.0488   1.0546
  1.0701   1.0738   1.1111   1.1259   1.1420   1.1496   1.1612   1.1963
  1.2245   1.2326   1.2439   1.2693   1.3039   1.3102   1.3183   1.3239
  1.3408   1.3453   1.3584   1.3778   1.3985   1.4178   1.4363   1.4457
  1.4590   1.4719   1.4930   1.4954   1.5155   1.5474   1.5987   1.6375
  1.6645   1.6726   1.6843   1.7214   1.7588   1.7731   1.8259   1.8269
  1.8309   1.8391   1.8452   1.8648   1.8800   1.8823   1.8996   1.9191
  1.9378   1.9410   1.9475   1.9557   1.9643   1.9678   1.9898   2.0043
  2.0424   2.0630   2.0787   2.0951   2.1142   2.1273   2.1482   2.1648
  2.1889   2.2013   2.2302   2.2381   2.2519   2.2954   2.3108   2.3444
  2.3523   2.3950   2.3985   2.4737   2.4832   2.5173   2.5250   2.5750
  2.5878   2.5938   2.6226   2.6557   2.6657   2.6938   2.7237   2.7852
  2.7921   2.8293   2.8475   2.8915   2.9821   3.0016   3.0341   3.0624
  3.0688   3.1157   3.1758   3.3149   3.4707   4.0815   4.0830   4.1006
  4.1372   4.1409   4.2274   4.2518   4.2943   4.3186   4.3940   4.4857
  4.5037   4.7779   4.9638   5.9100
 --------------------------------------------------------------
 
          Ground-State Mulliken Net Atomic Charges

     Atom                 Charge (a.u.)
  ----------------------------------------
      1 C                    -0.346922
      2 C                    -0.114205
      3 C                     0.171024
      4 C                    -0.255942
      5 C                     0.181300
      6 C                    -0.113497
      7 C                    -0.348260
      8 C                    -0.237034
      9 C                     0.351813
     10 O                    -0.523516
     11 C                     0.975020
     12 F                    -0.276722
     13 F                    -0.276869
     14 F                    -0.253382
     15 C                    -0.240452
     16 H                     0.150351
     17 H                     0.146996
     18 H                     0.135179
     19 H                     0.131019
     20 H                     0.132338
     21 H                     0.148465
     22 H                     0.150299
     23 H                     0.149578
     24 H                     0.163417
  ----------------------------------------
  Sum of atomic charges =     0.000000

 -----------------------------------------------------------------
                    Cartesian Multipole Moments
 -----------------------------------------------------------------
    Charge (ESU x 10^10)
                 0.0000
    Dipole Moment (Debye)
         X       2.5672      Y      -0.2628      Z       0.0158
       Tot       2.5807
    Quadrupole Moments (Debye-Ang)
        XX     -82.0300     XY       1.0063     YY     -75.7462
        XZ      -0.2022     YZ      -0.3720     ZZ     -88.1863
    Octopole Moments (Debye-Ang^2)
       XXX     -28.0693    XXY      -1.1426    XYY     -10.5194
       YYY      -0.8925    XXZ      -0.4321    XYZ       1.0966
       YYZ      -0.9793    XZZ     -34.4652    YZZ       2.3415
       ZZZ      -0.3052
    Hexadecapole Moments (Debye-Ang^3)
      XXXX   -2678.9994   XXXY       9.5328   XXYY    -693.1352
      XYYY      -1.0274   YYYY   -1534.5704   XXXZ       0.4567
      XXYZ       6.9681   XYYZ      -6.3742   YYYZ      -8.5058
      XXZZ    -514.8630   XYZZ      -8.3184   YYZZ    -334.7151
      XZZZ       1.2629   YZZZ      -0.5278   ZZZZ    -146.9067
 -----------------------------------------------------------------
Archival summary:
1\1\nia2015.scinet.local\SP\ProcedureUnspecified\6-31G*\31119\rhickman\TueFeb815:34:052022TueFeb815:34:052022\0\\#,ProcedureUnspecified,6-31G*,\\0,1\O\C,1,1.31282\F,2,1.33009,1,108.917\F,2,1.34674,1,114.558,3,-119.099,0\F,2,1.34677,1,114.564,3,119.075,0\C,1,1.41196,2,120.667,3,179.594,0\C,6,1.38024,1,123.952,2,0.575657,0\H,7,1.07852,6,121.831,1,0.212292,0\C,6,1.38379,1,114.374,2,-179.241,0\H,9,1.07623,6,118.391,1,0.360266,0\C,9,1.39324,6,119.778,1,179.739,0\C,11,1.39389,9,118.555,6,0.0439072,0\H,12,1.07895,11,118.763,9,-179.199,0\C,12,1.3902,11,121.757,9,0.348828,0\C,14,1.45927,12,122.896,11,179.706,0\H,15,1.08261,14,114.567,12,168.801,0\C,15,1.32723,14,126.399,12,-12.3256,0\H,17,1.07621,15,121.201,14,-179.602,0\H,17,1.07644,15,122.871,14,-0.271064,0\C,11,1.45929,9,122.53,6,-179.731,0\H,20,1.08285,11,114.417,9,173.856,0\C,20,1.32719,11,126.566,9,-6.81136,0\H,22,1.07618,20,122.875,11,-0.0978609,0\H,22,1.07637,20,121.197,11,-179.741,0\\\@

 Total job time:  36.78s(wall), 36.65s(cpu) 
 Tue Feb  8 15:34:05 2022

        *************************************************************
        *                                                           *
        *  Thank you very much for using Q-Chem.  Have a nice day.  *
        *                                                           *
        *************************************************************


