
Running Job 1 of 1 fragments/C082/conf-8/spe_input.inp
qchem fragments/C082/conf-8/spe_input.inp_133472.0 /gpfs/fs0/scratch/a/aspuru/rhickman/descriptor_computation/qchem133472/ 0
/scinet/niagara/software/commercial/qc52/exe/qcprog.exe_s fragments/C082/conf-8/spe_input.inp_133472.0 /gpfs/fs0/scratch/a/aspuru/rhickman/descriptor_computation/qchem133472/
                  Welcome to Q-Chem
     A Quantum Leap Into The Future Of Chemistry


 Q-Chem 5.2, Q-Chem, Inc., Pleasanton, CA (2019)

 License issued to: SRG Alan Aspuru-Guzik, University of Toronto

 Yihan Shao,  Zhengting Gan,  E. Epifanovsky,  A. T. B. Gilbert,  M. Wormit,  
 J. Kussmann,  A. W. Lange,  A. Behn,  Jia Deng,  Xintian Feng,  D. Ghosh,  
 M. Goldey,  P. R. Horn,  L. D. Jacobson,  I. Kaliman,  T. Kus,  A. Landau,  
 Jie Liu,  E. I. Proynov,  R. M. Richard,  R. P. Steele,  E. J. Sundstrom,  
 H. L. Woodcock III,  P. M. Zimmerman,  D. Zuev,  B. Albrecht,  E. Alguire,  
 S. A. Baeppler,  D. Barton,  Z. Benda,  Y. A. Bernard,  E. J. Berquist,  
 K. B. Bravaya,  H. Burton,  D. Casanova,  Chun-Min Chang,  Yunqing Chen,  
 A. Chien,  K. D. Closser,  M. P. Coons,  S. Coriani,  S. Dasgupta,  
 A. L. Dempwolff,  M. Diedenhofen,  Hainam Do,  R. G. Edgar,  Po-Tung Fang,  
 S. Faraji,  S. Fatehi,  Qingguo Feng,  K. D. Fenk,  J. Fosso-Tande,  
 J. Gayvert,  Qinghui Ge,  A. Ghysels,  G. Gidofalvi,  J. Gomes,  
 J. Gonthier,  A. Gunina,  D. Hait,  M. W. D. Hanson-Heine,  
 P. H. P. Harbach,  A. W. Hauser,  M. F. Herbst,  J. E. Herr,  
 E. G. Hohenstein,  Z. C. Holden,  Kerwin Hui,  B. C. Huynh,  T.-C. Jagau,  
 Hyunjun Ji,  B. Kaduk,  K. Khistyaev,  Jaehoon Kim,  P. Klunzinger,  K. Koh,  
 D. Kosenkov,  L. Koulias,  T. Kowalczyk,  C. M. Krauter,  A. Kunitsa,  
 Ka Un Lao,  A. Laurent,  K. V. Lawler,  Joonho Lee,  D. Lefrancois,  
 S. Lehtola,  D. S. Levine,  Yi-Pei Li,  You-Sheng Lin,  Fenglai Liu,  
 E. Livshits,  A. Luenser,  P. Manohar,  E. Mansoor,  S. F. Manzer,  
 Shan-Ping Mao,  Yuezhi Mao,  N. Mardirossian,  A. V. Marenich,  
 T. Markovich,  L. A. Martinez-Martinez,  S. A. Maurer,  N. J. Mayhall,  
 S. C. McKenzie,  J.-M. Mewes,  P. Morgante,  A. F. Morrison,  
 J. W. Mullinax,  K. Nanda,  T. S. Nguyen-Beck,  R. Olivares-Amaya,  
 J. A. Parkhill,  Zheng Pei,  T. M. Perrine,  F. Plasser,  P. Pokhilko,  
 S. Prager,  A. Prociuk,  E. Ramos,  D. R. Rehn,  F. Rob,  M. Scheurer,  
 M. Schneider,  N. Sergueev,  S. M. Sharada,  S. Sharma,  D. W. Small,  
 T. Stauch,  T. Stein,  Yu-Chuan Su,  A. J. W. Thom,  A. Tkatchenko,  
 T. Tsuchimochi,  N. M. Tubman,  L. Vogt,  M. L. Vidal,  O. Vydrov,  
 M. A. Watson,  J. Wenzel,  M. de Wergifosse,  T. A. Wesolowski,  A. White,  
 J. Witte,  A. Yamada,  Jun Yang,  K. Yao,  S. Yeganeh,  S. R. Yost,  
 Zhi-Qiang You,  A. Zech,  Igor Ying Zhang,  Xing Zhang,  Yan Zhao,  
 Ying Zhu,  B. R. Brooks,  G. K. L. Chan,  C. J. Cramer,  M. S. Gordon,  
 W. J. Hehre,  A. Klamt,  M. W. Schmidt,  C. D. Sherrill,  D. G. Truhlar,  
 A. Aspuru-Guzik,  R. Baer,  A. T. Bell,  N. A. Besley,  Jeng-Da Chai,  
 A. E. DePrince, III,  R. A. DiStasio Jr.,  A. Dreuw,  B. D. Dunietz,  
 T. R. Furlani,  Chao-Ping Hsu,  Yousung Jung,  Jing Kong,  D. S. Lambrecht,  
 WanZhen Liang,  C. Ochsenfeld,  V. A. Rassolov,  L. V. Slipchenko,  
 J. E. Subotnik,  T. Van Voorhis,  J. M. Herbert,  A. I. Krylov,  
 P. M. W. Gill,  M. Head-Gordon

 Contributors to earlier versions of Q-Chem not listed above: 
 R. D. Adamson,  B. Austin,  J. Baker,  G. J. O. Beran,  K. Brandhorst,  
 S. T. Brown,  E. F. C. Byrd,  A. K. Chakraborty,  C.-L. Cheng,  
 Siu Hung Chien,  D. M. Chipman,  D. L. Crittenden,  H. Dachsel,  
 R. J. Doerksen,  A. D. Dutoi,  L. Fusti-Molnar,  W. A. Goddard III,  
 A. Golubeva-Zadorozhnaya,  S. R. Gwaltney,  G. Hawkins,  A. Heyden,  
 S. Hirata,  G. Kedziora,  F. J. Keil,  C. Kelley,  Jihan Kim,  R. A. King,  
 R. Z. Khaliullin,  P. P. Korambath,  W. Kurlancheek,  A. M. Lee,  M. S. Lee,  
 S. V. Levchenko,  Ching Yeh Lin,  D. Liotard,  R. C. Lochan,  I. Lotan,  
 P. E. Maslen,  N. Nair,  D. P. O'Neill,  D. Neuhauser,  E. Neuscamman,  
 C. M. Oana,  R. Olson,  B. Peters,  R. Peverati,  P. A. Pieniazek,  
 Y. M. Rhee,  J. Ritchie,  M. A. Rohrdanz,  E. Rosta,  N. J. Russ,  
 H. F. Schaefer III,  N. E. Schultz,  N. Shenvi,  A. C. Simmonett,  A. Sodt,  
 D. Stuck,  K. S. Thanthiriwatte,  V. Vanovschi,  Tao Wang,  A. Warshel,  
 C. F. Williams,  Q. Wu,  X. Xu,  W. Zhang

 Please cite Q-Chem as follows:
 Y. Shao et al., Mol. Phys. 113, 184-215 (2015)
 DOI: 10.1080/00268976.2014.952696

 Q-Chem 5.2.1 for Intel X86 EM64T Linux

 Parts of Q-Chem use Armadillo 8.300.2 (Tropical Shenanigans).
 http://arma.sourceforge.net/

 Q-Chem begins on Mon Feb  7 16:39:04 2022  

Host: 
0

     Scratch files written to /gpfs/fs0/scratch/a/aspuru/rhickman/descriptor_computation/qchem133472//
 Jul1719 |scratch|qcdevops|jenkins|workspace|build_RNUM -1
Processing $rem in /scinet/niagara/software/commercial/qc52/config/preferences:
	 MEM_TOTAL  4000 
NAlpha2: 104
NElect   104
Mult     1

Checking the input file for inconsistencies... 	...done.

--------------------------------------------------------------
User input:
--------------------------------------------------------------
$molecule
0 1
C        -3.74055386170000   -1.97816388290000   -0.44433856540000
C        -2.56968290000000   -2.06796418730000    0.18004192110000
C        -1.59108837940000   -1.01873724240000    0.25346456220000
C        -0.37354384510000   -1.06462286870000    0.87804173970000
C         0.39125481820000    0.11599463660000    0.76800441320000
C         1.70927273600000    0.24683671990000    1.46774842590000
C         2.77697131220000   -0.74387335650000    0.98166472220000
C         3.37744441320000   -0.43647167130000   -0.39018572610000
C         2.42124592790000   -0.67780950190000   -1.55191463860000
C        -0.26408001280000    1.09225954910000    0.05159344690000
C         0.08991278090000    2.44366079270000   -0.31486465940000
C         1.30812235890000    2.93114563580000   -0.52892656590000
S        -1.83318748880000    0.53703285460000   -0.47682473000000
H        -4.43509759120000   -2.79894777790000   -0.46704226520000
H        -4.03623385590000   -1.07526916350000   -0.95292420300000
H        -2.28645219320000   -2.98301379270000    0.68551402300000
H        -0.03436815440000   -1.93301233800000    1.41650983860000
H         1.53223219960000    0.04271447130000    2.52943828070000
H         2.08242655830000    1.26672523670000    1.38910520960000
H         2.35383208020000   -1.75027548080000    0.96454458680000
H         3.58765665640000   -0.74004445240000    1.71524828190000
H         4.25447373550000   -1.07598561150000   -0.52295398110000
H         3.72834058320000    0.59806574290000   -0.41067379230000
H         2.02480711930000   -1.69038980430000   -1.51310738620000
H         2.94231659200000   -0.55045615290000   -2.49856188630000
H         1.58784817580000    0.01740691730000   -1.52702115970000
H        -0.76553926790000    3.09173306320000   -0.46689115670000
H         2.19835117370000    2.33328587390000   -0.45918734350000
H         1.44736737980000    3.96182620310000   -0.80649519730000
$end

$rem
BASIS = 6-31G*
GUI = 2
METHOD = B3LYP
PRINT_ORBITALS false
MOLDEN_FORMAT false
--------------------------------------------------------------
 ----------------------------------------------------------------
             Standard Nuclear Orientation (Angstroms)
    I     Atom           X                Y                Z
 ----------------------------------------------------------------
    1      C       4.2311618445     0.6938994589    -0.4879593721
    2      C       3.1233538351     1.2236691141     0.0228825039
    3      C       1.8816002099     0.5241914455     0.2036979553
    4      C       0.7164117819     1.0257512524     0.7188586308
    5      C      -0.3548644651     0.1083017407     0.7580568278
    6      C      -1.6689641349     0.4857187070     1.3701279487
    7      C      -2.3935300934     1.6272183189     0.6422908241
    8      C      -3.0278269729     1.2499864602    -0.6965149822
    9      C      -2.0181145303     0.9918073729    -1.8082694066
   10      C       0.0049626418    -1.1285666509     0.2717620327
   11      C      -0.7171522250    -2.3699913022     0.1191097575
   12      C      -2.0194552499    -2.5270886690    -0.0972829335
   13      S       1.6785287401    -1.1448905063    -0.2267465126
   14      H       5.1338823558     1.2674927490    -0.6005607418
   15      H       4.2636163056    -0.3341382170    -0.8095027270
   16      H       3.1063977026     2.2590749125     0.3401911574
   17      H       0.6317075027     2.0390926238     1.0724866321
   18      H      -1.4631403675     0.8265854916     2.3907361026
   19      H      -2.3196008487    -0.3844461380     1.4414450326
   20      H      -1.6969179164     2.4527665457     0.4829586411
   21      H      -3.1860950267     1.9881712818     1.3032931024
   22      H      -3.6791416697     2.0733612475    -1.0025036205
   23      H      -3.6626471370     0.3706506344    -0.5638974528
   24      H      -1.3464597311     1.8411144987    -1.9157209649
   25      H      -2.5333928342     0.8412503110    -2.7546812433
   26      H      -1.4223725599     0.1080784939    -1.6018423226
   27      H      -0.0828787965    -3.2485817321     0.1452632610
   28      H      -2.6997852885    -1.7013875687    -0.1981587399
   29      H      -2.4451273821    -3.5102205245    -0.2021206338
 ----------------------------------------------------------------
 Molecular Point Group                 C1    NOp =  1
 Largest Abelian Subgroup              C1    NOp =  1
 Nuclear Repulsion Energy =         879.54534828 hartrees
 There are       52 alpha and       52 beta electrons
 Requested basis set is 6-31G(d)
 There are 85 shells and 231 basis functions

 Total QAlloc Memory Limit   4000 MB
 Mega-Array Size       188 MB
 MEM_STATIC part       192 MB
 A cutoff of  1.0D-08 yielded   2498 shell pairs
 There are     19855 function pairs
 Smallest overlap matrix eigenvalue = 7.06E-04

 Scale SEOQF with 1.000000e-01/1.000000e-01/1.000000e-01

 Standard Electronic Orientation quadrupole field applied
 Nucleus-field energy     =     0.0000000257 hartrees
 Guess from superposition of atomic densities
 Warning:  Energy on first SCF cycle will be non-variational
 SAD guess density has 104.000000 electrons

 -----------------------------------------------------------------------
  General SCF calculation program by
  Eric Jon Sundstrom, Paul Horn, Yuezhi Mao, Dmitri Zuev, Alec White,
  David Stuck, Shaama M.S., Shane Yost, Joonho Lee, David Small,
  Daniel Levine, Susi Lehtola, Hugh Burton, Evgeny Epifanovsky,
  Bang C. Huynh
 -----------------------------------------------------------------------
 Exchange:     0.2000 Hartree-Fock + 0.0800 Slater + 0.7200 B88
 Correlation:  0.1900 VWN1RPA + 0.8100 LYP
 Using SG-1 standard quadrature grid
 A restricted SCF calculation will be
 performed using DIIS
 SCF converges when DIIS error is below 1.0e-05
 ---------------------------------------
  Cycle       Energy         DIIS error
 ---------------------------------------
    1    -867.8468947452      5.21e-02  
    2    -864.7933705692      5.93e-03  
    3    -864.6781099742      7.12e-03  
    4    -865.0345338111      1.57e-03  
    5    -865.0521352790      4.84e-04  
    6    -865.0536638807      1.55e-04  
    7    -865.0538146427      6.00e-05  
    8    -865.0538388955      1.68e-05  
    9    -865.0538407234      3.71e-06  Convergence criterion met
 ---------------------------------------
 SCF time:   CPU 44.99s  wall 45.00s 
 SCF   energy in the final basis set =     -865.0538407234
 Total energy in the final basis set =     -865.0538407234
 
 --------------------------------------------------------------
 
                    Orbital Energies (a.u.)
 --------------------------------------------------------------
 
 Alpha MOs
 -- Occupied --
-88.8979 -10.2158 -10.2136 -10.1983 -10.1971 -10.1922 -10.1856 -10.1848
-10.1818 -10.1811 -10.1799 -10.1760 -10.1606  -7.9599  -5.9240  -5.9203
 -5.9168  -0.8886  -0.8121  -0.7979  -0.7727  -0.7489  -0.7159  -0.6944
 -0.6389  -0.6212  -0.5912  -0.5647  -0.5351  -0.5202  -0.4948  -0.4634
 -0.4561  -0.4531  -0.4326  -0.4266  -0.4110  -0.4014  -0.3933  -0.3851
 -0.3735  -0.3668  -0.3604  -0.3463  -0.3381  -0.3307  -0.3234  -0.3155
 -0.3079  -0.2682  -0.2421  -0.1985
 -- Virtual --
 -0.0475   0.0098   0.0292   0.0674   0.0864   0.0931   0.1032   0.1181
  0.1289   0.1331   0.1356   0.1480   0.1566   0.1701   0.1708   0.1797
  0.1879   0.1934   0.2008   0.2037   0.2140   0.2211   0.2497   0.2565
  0.2661   0.2830   0.2883   0.3114   0.3223   0.3361   0.3456   0.3591
  0.3766   0.4008   0.4435   0.4699   0.4855   0.4882   0.5000   0.5062
  0.5307   0.5369   0.5408   0.5575   0.5712   0.5778   0.5880   0.5922
  0.6108   0.6271   0.6280   0.6381   0.6487   0.6588   0.6747   0.6853
  0.6922   0.6941   0.7213   0.7312   0.7578   0.7774   0.8001   0.8127
  0.8190   0.8313   0.8394   0.8482   0.8590   0.8696   0.8730   0.8775
  0.8812   0.8899   0.9030   0.9203   0.9297   0.9369   0.9556   0.9674
  0.9738   0.9771   0.9907   1.0022   1.0137   1.0168   1.0297   1.0484
  1.0734   1.0780   1.0858   1.1197   1.1292   1.1562   1.1812   1.2280
  1.2610   1.2773   1.2938   1.3240   1.3386   1.3556   1.3965   1.4267
  1.4605   1.4739   1.4879   1.5068   1.5535   1.5690   1.5971   1.6262
  1.6330   1.6526   1.6930   1.7327   1.7589   1.7685   1.8084   1.8373
  1.8540   1.8792   1.9029   1.9214   1.9323   1.9685   1.9966   1.9970
  2.0094   2.0192   2.0375   2.0644   2.0816   2.1076   2.1475   2.1564
  2.1825   2.2071   2.2278   2.2422   2.2720   2.3056   2.3274   2.3283
  2.3579   2.3660   2.3927   2.3996   2.4435   2.4485   2.4644   2.4909
  2.5165   2.5568   2.6157   2.6201   2.6481   2.7021   2.7237   2.7544
  2.7991   2.8655   2.9308   3.0073   3.1089   3.2078   3.9704   4.1032
  4.1245   4.1431   4.1557   4.2031   4.2402   4.3110   4.3566   4.4630
  4.5172   4.5446   4.6757
 --------------------------------------------------------------
 
          Ground-State Mulliken Net Atomic Charges

     Atom                 Charge (a.u.)
  ----------------------------------------
      1 C                    -0.374065
      2 C                    -0.055104
      3 C                    -0.132482
      4 C                    -0.177801
      5 C                     0.188166
      6 C                    -0.345634
      7 C                    -0.255061
      8 C                    -0.255097
      9 C                    -0.450580
     10 C                    -0.215445
     11 C                    -0.094541
     12 C                    -0.348283
     13 S                     0.227226
     14 H                     0.146475
     15 H                     0.156416
     16 H                     0.136826
     17 H                     0.134452
     18 H                     0.148092
     19 H                     0.146920
     20 H                     0.133613
     21 H                     0.130966
     22 H                     0.131988
     23 H                     0.131742
     24 H                     0.141477
     25 H                     0.137737
     26 H                     0.171497
     27 H                     0.141124
     28 H                     0.154643
     29 H                     0.144734
  ----------------------------------------
  Sum of atomic charges =     0.000000

 -----------------------------------------------------------------
                    Cartesian Multipole Moments
 -----------------------------------------------------------------
    Charge (ESU x 10^10)
                -0.0000
    Dipole Moment (Debye)
         X      -0.6191      Y       0.7059      Z       0.4659
       Tot       1.0482
    Quadrupole Moments (Debye-Ang)
        XX     -82.2102     XY       2.3732     YY     -81.0757
        XZ      -1.2528     YZ       1.9602     ZZ     -89.7498
    Octopole Moments (Debye-Ang^2)
       XXX      11.9554    XXY       4.7232    XYY       1.8821
       YYY      -6.6121    XXZ      -7.1018    XYZ       1.1259
       YYZ       1.4438    XZZ      -4.3064    YZZ       3.8269
       ZZZ       1.6373
    Hexadecapole Moments (Debye-Ang^3)
      XXXX   -2539.3381   XXXY      39.0573   XXYY    -599.7095
      XYYY      25.5086   YYYY   -1044.2793   XXXZ     -38.6140
      XXYZ       8.1285   XYYZ       6.8691   YYYZ      10.2976
      XXZZ    -535.8540   XYZZ     -11.1090   YYZZ    -272.5387
      XZZZ       0.9986   YZZZ       5.3259   ZZZZ    -458.1324
 -----------------------------------------------------------------
Archival summary:
1\1\nia1977.scinet.local\SP\ProcedureUnspecified\6-31G*\11216\rhickman\MonFeb716:39:492022MonFeb716:39:492022\0\\#,ProcedureUnspecified,6-31G*,\\0,1\S\C,1,1.73561\C,2,1.36917,1,110.244\H,3,1.07661,2,122.367,1,178.447,0\C,3,1.41099,2,114.733,1,-1.07289,0\C,5,1.37688,3,112.078,2,0.565868,0\C,2,1.43663,1,122.557,3,179.882,0\H,7,1.08307,2,114.523,1,-179.698,0\C,7,1.32998,2,125.055,1,0.393348,0\H,9,1.07545,7,121.799,2,179.95,0\H,9,1.07764,7,121.311,2,-0.00878424,0\C,6,1.44426,5,132.751,3,179.419,0\H,12,1.08393,6,113.678,5,-153.137,0\C,12,1.32947,6,127.484,5,29.8372,0\H,14,1.07462,12,123,6,0.847986,0\H,14,1.07645,12,120.739,6,179.527,0\C,5,1.49798,3,120.902,2,176.309,0\H,17,1.08885,5,110.463,3,-171.747,0\H,17,1.09553,5,107.112,3,-55.0161,0\C,17,1.5355,5,114.053,3,63.6648,0\H,20,1.09187,17,109.28,5,-49.185,0\H,20,1.09333,17,107.513,5,-165.6,0\C,20,1.52874,17,115.307,5,73.8053,0\H,23,1.09262,20,109.473,17,52.0496,0\H,23,1.09352,20,107.841,17,168.235,0\C,23,1.52387,20,113.942,17,-71.2006,0\H,26,1.08559,23,111.273,20,66.4291,0\H,26,1.08806,23,110.135,20,-173.565,0\H,26,1.08811,23,110.414,20,-53.9744,0\\\@

 Total job time:  45.33s(wall), 45.19s(cpu) 
 Mon Feb  7 16:39:49 2022

        *************************************************************
        *                                                           *
        *  Thank you very much for using Q-Chem.  Have a nice day.  *
        *                                                           *
        *************************************************************


