29
 energy: -51.517523029977 gnorm: 0.000049193438 xtb: 6.5.0 (unknown)
C            0.20972575180000        4.06315848900000       -0.11718743120000
C           -0.69990870690000        3.09669125640000       -0.12357320730000
C           -0.44379822820000        1.66069779800000       -0.06584330880000
C           -1.53431805140000        0.79143278730000       -0.03219372200000
C           -1.36593683520000       -0.59139376120000        0.02522625100000
C           -2.47334179650000       -1.53536106070000        0.06320120990000
C           -3.77343915830000       -1.28255067770000        0.05132540800000
F           -4.37698222890000       -0.10100840930000        0.00147894270000
F           -4.70068465830000       -2.23596911540000        0.09001227800000
C           -0.07031588920000       -1.10400281910000        0.04745532950000
C            1.02596222580000       -0.25071795150000        0.01230699790000
C            2.38158445170000       -0.85894667190000        0.03705196010000
O            2.58851267170000       -2.04750826010000        0.08802970090000
O            3.35644468060000        0.05466317410000       -0.00396833910000
C            4.69265151490000       -0.44874757040000        0.01487077380000
C            5.64784152040000        0.72556544860000       -0.08124530790000
C            0.84291954450000        1.12465040210000       -0.04421144540000
H           -0.07817610470000        5.09933457140000       -0.16155743880000
H            1.26760607850000        3.87107019660000       -0.06628718870000
H           -1.74845717990000        3.36287662400000       -0.17193225370000
H           -2.52663613320000        1.21336428080000       -0.05052824820000
H           -2.20804761420000       -2.58169519280000        0.10705354530000
H            0.10671394730000       -2.16798566310000        0.09138397320000
H            4.82128339180000       -1.13999671530000       -0.82575644930000
H            4.84389659610000       -1.01288590570000        0.94225543790000
H            5.47533287550000        1.27443253060000       -1.00323059350000
H            6.67188367420000        0.36425601050000       -0.06952664390000
H            5.49926845240000        1.39936966070000        0.75836775330000
H            1.70809709040000        1.76557883410000       -0.07309066000000
