
Running Job 1 of 1 fragments/A007/conf-1/spe_input.inp
qchem fragments/A007/conf-1/spe_input.inp_310605.0 /gpfs/fs0/scratch/a/aspuru/rhickman/descriptor_computation/qchem310605/ 0
/scinet/niagara/software/commercial/qc52/exe/qcprog.exe_s fragments/A007/conf-1/spe_input.inp_310605.0 /gpfs/fs0/scratch/a/aspuru/rhickman/descriptor_computation/qchem310605/
                  Welcome to Q-Chem
     A Quantum Leap Into The Future Of Chemistry


 Q-Chem 5.2, Q-Chem, Inc., Pleasanton, CA (2019)

 License issued to: SRG Alan Aspuru-Guzik, University of Toronto

 Yihan Shao,  Zhengting Gan,  E. Epifanovsky,  A. T. B. Gilbert,  M. Wormit,  
 J. Kussmann,  A. W. Lange,  A. Behn,  Jia Deng,  Xintian Feng,  D. Ghosh,  
 M. Goldey,  P. R. Horn,  L. D. Jacobson,  I. Kaliman,  T. Kus,  A. Landau,  
 Jie Liu,  E. I. Proynov,  R. M. Richard,  R. P. Steele,  E. J. Sundstrom,  
 H. L. Woodcock III,  P. M. Zimmerman,  D. Zuev,  B. Albrecht,  E. Alguire,  
 S. A. Baeppler,  D. Barton,  Z. Benda,  Y. A. Bernard,  E. J. Berquist,  
 K. B. Bravaya,  H. Burton,  D. Casanova,  Chun-Min Chang,  Yunqing Chen,  
 A. Chien,  K. D. Closser,  M. P. Coons,  S. Coriani,  S. Dasgupta,  
 A. L. Dempwolff,  M. Diedenhofen,  Hainam Do,  R. G. Edgar,  Po-Tung Fang,  
 S. Faraji,  S. Fatehi,  Qingguo Feng,  K. D. Fenk,  J. Fosso-Tande,  
 J. Gayvert,  Qinghui Ge,  A. Ghysels,  G. Gidofalvi,  J. Gomes,  
 J. Gonthier,  A. Gunina,  D. Hait,  M. W. D. Hanson-Heine,  
 P. H. P. Harbach,  A. W. Hauser,  M. F. Herbst,  J. E. Herr,  
 E. G. Hohenstein,  Z. C. Holden,  Kerwin Hui,  B. C. Huynh,  T.-C. Jagau,  
 Hyunjun Ji,  B. Kaduk,  K. Khistyaev,  Jaehoon Kim,  P. Klunzinger,  K. Koh,  
 D. Kosenkov,  L. Koulias,  T. Kowalczyk,  C. M. Krauter,  A. Kunitsa,  
 Ka Un Lao,  A. Laurent,  K. V. Lawler,  Joonho Lee,  D. Lefrancois,  
 S. Lehtola,  D. S. Levine,  Yi-Pei Li,  You-Sheng Lin,  Fenglai Liu,  
 E. Livshits,  A. Luenser,  P. Manohar,  E. Mansoor,  S. F. Manzer,  
 Shan-Ping Mao,  Yuezhi Mao,  N. Mardirossian,  A. V. Marenich,  
 T. Markovich,  L. A. Martinez-Martinez,  S. A. Maurer,  N. J. Mayhall,  
 S. C. McKenzie,  J.-M. Mewes,  P. Morgante,  A. F. Morrison,  
 J. W. Mullinax,  K. Nanda,  T. S. Nguyen-Beck,  R. Olivares-Amaya,  
 J. A. Parkhill,  Zheng Pei,  T. M. Perrine,  F. Plasser,  P. Pokhilko,  
 S. Prager,  A. Prociuk,  E. Ramos,  D. R. Rehn,  F. Rob,  M. Scheurer,  
 M. Schneider,  N. Sergueev,  S. M. Sharada,  S. Sharma,  D. W. Small,  
 T. Stauch,  T. Stein,  Yu-Chuan Su,  A. J. W. Thom,  A. Tkatchenko,  
 T. Tsuchimochi,  N. M. Tubman,  L. Vogt,  M. L. Vidal,  O. Vydrov,  
 M. A. Watson,  J. Wenzel,  M. de Wergifosse,  T. A. Wesolowski,  A. White,  
 J. Witte,  A. Yamada,  Jun Yang,  K. Yao,  S. Yeganeh,  S. R. Yost,  
 Zhi-Qiang You,  A. Zech,  Igor Ying Zhang,  Xing Zhang,  Yan Zhao,  
 Ying Zhu,  B. R. Brooks,  G. K. L. Chan,  C. J. Cramer,  M. S. Gordon,  
 W. J. Hehre,  A. Klamt,  M. W. Schmidt,  C. D. Sherrill,  D. G. Truhlar,  
 A. Aspuru-Guzik,  R. Baer,  A. T. Bell,  N. A. Besley,  Jeng-Da Chai,  
 A. E. DePrince, III,  R. A. DiStasio Jr.,  A. Dreuw,  B. D. Dunietz,  
 T. R. Furlani,  Chao-Ping Hsu,  Yousung Jung,  Jing Kong,  D. S. Lambrecht,  
 WanZhen Liang,  C. Ochsenfeld,  V. A. Rassolov,  L. V. Slipchenko,  
 J. E. Subotnik,  T. Van Voorhis,  J. M. Herbert,  A. I. Krylov,  
 P. M. W. Gill,  M. Head-Gordon

 Contributors to earlier versions of Q-Chem not listed above: 
 R. D. Adamson,  B. Austin,  J. Baker,  G. J. O. Beran,  K. Brandhorst,  
 S. T. Brown,  E. F. C. Byrd,  A. K. Chakraborty,  C.-L. Cheng,  
 Siu Hung Chien,  D. M. Chipman,  D. L. Crittenden,  H. Dachsel,  
 R. J. Doerksen,  A. D. Dutoi,  L. Fusti-Molnar,  W. A. Goddard III,  
 A. Golubeva-Zadorozhnaya,  S. R. Gwaltney,  G. Hawkins,  A. Heyden,  
 S. Hirata,  G. Kedziora,  F. J. Keil,  C. Kelley,  Jihan Kim,  R. A. King,  
 R. Z. Khaliullin,  P. P. Korambath,  W. Kurlancheek,  A. M. Lee,  M. S. Lee,  
 S. V. Levchenko,  Ching Yeh Lin,  D. Liotard,  R. C. Lochan,  I. Lotan,  
 P. E. Maslen,  N. Nair,  D. P. O'Neill,  D. Neuhauser,  E. Neuscamman,  
 C. M. Oana,  R. Olson,  B. Peters,  R. Peverati,  P. A. Pieniazek,  
 Y. M. Rhee,  J. Ritchie,  M. A. Rohrdanz,  E. Rosta,  N. J. Russ,  
 H. F. Schaefer III,  N. E. Schultz,  N. Shenvi,  A. C. Simmonett,  A. Sodt,  
 D. Stuck,  K. S. Thanthiriwatte,  V. Vanovschi,  Tao Wang,  A. Warshel,  
 C. F. Williams,  Q. Wu,  X. Xu,  W. Zhang

 Please cite Q-Chem as follows:
 Y. Shao et al., Mol. Phys. 113, 184-215 (2015)
 DOI: 10.1080/00268976.2014.952696

 Q-Chem 5.2.1 for Intel X86 EM64T Linux

 Parts of Q-Chem use Armadillo 8.300.2 (Tropical Shenanigans).
 http://arma.sourceforge.net/

 Q-Chem begins on Tue Feb  8 13:54:17 2022  

Host: 
0

     Scratch files written to /gpfs/fs0/scratch/a/aspuru/rhickman/descriptor_computation/qchem310605//
 Jul1719 |scratch|qcdevops|jenkins|workspace|build_RNUM -1
Processing $rem in /scinet/niagara/software/commercial/qc52/config/preferences:
	 MEM_TOTAL  4000 
NAlpha2: 198
NElect   198
Mult     1

Checking the input file for inconsistencies... 	...done.

--------------------------------------------------------------
User input:
--------------------------------------------------------------
$molecule
0 1
F        -3.15842607610000   -6.20232023370000    0.12751078730000
C        -3.16682910790000   -4.86732451080000    0.11891983400000
F        -4.42848148240000   -4.44956836450000    0.16855478580000
C        -2.06063542790000   -4.13973472670000    0.06967769420000
C        -1.91635956640000   -2.69433519680000    0.05573962700000
C        -0.62458983520000   -2.17188277680000    0.02866935880000
C        -0.44467664020000   -0.80013089070000    0.02093906130000
C         0.71848223450000    0.04289812460000   -0.02201370580000
C         2.08009692650000   -0.21562654460000   -0.04412441040000
C         2.97145685610000    0.84899859230000   -0.07058378830000
C         4.42143413830000    0.60470520810000   -0.10499968220000
C         4.99276600240000   -0.39265491240000    0.68197779830000
C         6.35554571880000   -0.62189810940000    0.64956336730000
C         7.17056421120000    0.13781301570000   -0.17276183080000
C         6.61341536550000    1.13038258830000   -0.96139782020000
C         5.25138620780000    1.36395161960000   -0.92666309340000
C         2.48242084640000    2.16252028560000   -0.05390265010000
C         1.13181225610000    2.44256190160000   -0.02442663860000
C         0.24580694210000    1.37478258960000   -0.02739821080000
N        -1.13491710070000    1.37142998180000    0.01669728640000
C        -1.95768357620000    2.50830734130000    0.02416746510000
C        -1.77934710330000    3.50486589340000   -0.93051258480000
C        -2.58897081680000    4.62552387530000   -0.91642651370000
C        -3.58416163460000    4.75652907560000    0.03784399900000
C        -3.76555920470000    3.76270548470000    0.98527158710000
C        -2.95434404800000    2.64308104560000    0.98583871480000
C        -1.56504645800000    0.06442481050000    0.04807697720000
C        -2.85535753840000   -0.44954393150000    0.04884016910000
C        -3.01534548620000   -1.81833221830000    0.05671640520000
H        -1.14434602410000   -4.71209661310000    0.03880765150000
H         0.23005061200000   -2.83145360200000    0.00971404510000
H         2.44126814950000   -1.23277842860000   -0.05905686830000
H         4.36445970330000   -0.97697093860000    1.33869227570000
H         6.78497337090000   -1.39500656340000    1.27036522550000
H         8.23507149490000   -0.04273140920000   -0.19881343140000
H         7.24358996830000    1.72364300220000   -1.60827890720000
H         4.82077288980000    2.12849203220000   -1.55720900930000
H         3.18850411860000    2.97954566560000   -0.03838903860000
H         0.77979369220000    3.46242806660000    0.01334499340000
H        -1.01693502600000    3.38801345310000   -1.68615007950000
H        -2.44712715630000    5.39609251850000   -1.65954788530000
H        -4.21698760930000    5.63095745340000    0.04302916520000
H        -4.53777888670000    3.86282106210000    1.73338571430000
H        -3.07800124230000    1.87629898720000    1.73594451500000
H        -3.71555960180000    0.20205172560000    0.03199941210000
H        -4.01523522950000   -2.21875481920000    0.05823330120000
$end

$rem
BASIS = 6-31G*
GUI = 2
METHOD = B3LYP
PRINT_ORBITALS false
MOLDEN_FORMAT false
--------------------------------------------------------------
 ----------------------------------------------------------------
             Standard Nuclear Orientation (Angstroms)
    I     Atom           X                Y                Z
 ----------------------------------------------------------------
    1      F      -4.9740715174    -4.9900840311    -0.1719486889
    2      C      -4.5746676145    -3.7166506368    -0.1372801425
    3      F      -5.6497833461    -2.9341885285    -0.1121852646
    4      C      -3.2982606787    -3.3614061580    -0.1293533117
    5      C      -2.7196975821    -2.0294732014    -0.0918174987
    6      C      -1.3301071999    -1.9267301519    -0.0628208686
    7      C      -0.7403289634    -0.6759326234    -0.0204071123
    8      C       0.6252418068    -0.2283724496    -0.0007147059
    9      C       1.8429680692    -0.8904514693     0.0098956111
   10      C       3.0168281765    -0.1491930886     0.0450775169
   11      C       4.3234552560    -0.8244866570     0.0465273244
   12      C       4.5325457015    -1.9657106109     0.8174812377
   13      C       5.7607080224    -2.6000506629     0.8187874142
   14      C       6.7997599595    -2.1083134314     0.0466472487
   15      C       6.6027694140    -0.9759513760    -0.7256912891
   16      C       5.3765505224    -0.3377740746    -0.7245158224
   17      C       2.9513399800     1.2502664345     0.0897771502
   18      C       1.7503628284     1.9292985876     0.0875584704
   19      C       0.5817757771     1.1840417512     0.0230336134
   20      N      -0.7348376576     1.6022266078     0.0252751800
   21      C      -1.1714064921     2.9358351231     0.0449370205
   22      C      -0.6608713792     3.8506429182    -0.8709382109
   23      C      -1.0901354418     5.1646491487    -0.8447986259
   24      C      -2.0341483059     5.5729483683     0.0827415606
   25      C      -2.5464816034     4.6618382073     0.9913681669
   26      C      -2.1159552924     3.3480094756     0.9799490561
   27      C      -1.5438922285     0.4890770945     0.0010403066
   28      C      -2.9284892398     0.3945363297    -0.0539168992
   29      C      -3.4984087867    -0.8595383218    -0.0954864937
   30      H      -2.5996580414    -4.1857942395    -0.1511708778
   31      H      -0.7172222027    -2.8155279640    -0.0774393792
   32      H       1.8770828661    -1.9687469612    -0.0272607957
   33      H       3.7310605492    -2.3440044804     1.4355291547
   34      H       5.9095762171    -3.4807987576     1.4267518799
   35      H       7.7586919591    -2.6052038563     0.0468884340
   36      H       7.4083790513    -0.5899299157    -1.3335676201
   37      H       5.2243187315     0.5353938898    -1.3425297479
   38      H       3.8717693322     1.8116119419     0.1532260267
   39      H       1.7249010311     3.0068800432     0.1478963809
   40      H       0.0582567668     3.5226867602    -1.6066108011
   41      H      -0.6914260477     5.8709054526    -1.5577908300
   42      H      -2.3699091567     6.5987032886     0.0973046163
   43      H      -3.2797547169     4.9770278603     1.7186831861
   44      H      -2.4964744134     2.6396421565     1.7005914626
   45      H      -3.5477125566     1.2782248026    -0.0754869768
   46      H      -4.5720502256    -0.9348543899    -0.1372190903
 ----------------------------------------------------------------
 Molecular Point Group                 C1    NOp =  1
 Largest Abelian Subgroup              C1    NOp =  1
 Nuclear Repulsion Energy =        2407.03458930 hartrees
 There are       99 alpha and       99 beta electrons
 Requested basis set is 6-31G(d)
 There are 150 shells and 469 basis functions

 Total QAlloc Memory Limit   4000 MB
 Mega-Array Size       188 MB
 MEM_STATIC part       192 MB
 A cutoff of  1.0D-08 yielded   4538 shell pairs
 There are     47839 function pairs
 Smallest overlap matrix eigenvalue = 2.44E-04

 Scale SEOQF with 1.000000e-02/1.000000e-02/1.000000e-01

 Standard Electronic Orientation quadrupole field applied
 Nucleus-field energy     =     0.0000000145 hartrees
 Guess from superposition of atomic densities
 Warning:  Energy on first SCF cycle will be non-variational
 SAD guess density has 198.000000 electrons

 -----------------------------------------------------------------------
  General SCF calculation program by
  Eric Jon Sundstrom, Paul Horn, Yuezhi Mao, Dmitri Zuev, Alec White,
  David Stuck, Shaama M.S., Shane Yost, Joonho Lee, David Small,
  Daniel Levine, Susi Lehtola, Hugh Burton, Evgeny Epifanovsky,
  Bang C. Huynh
 -----------------------------------------------------------------------
 Exchange:     0.2000 Hartree-Fock + 0.0800 Slater + 0.7200 B88
 Correlation:  0.1900 VWN1RPA + 0.8100 LYP
 Using SG-1 standard quadrature grid
 A restricted SCF calculation will be
 performed using DIIS
 SCF converges when DIIS error is below 1.0e-05
 ---------------------------------------
  Cycle       Energy         DIIS error
 ---------------------------------------
    1   -1263.2069697851      3.85e-02  
    2   -1255.0463965284      3.66e-03  
    3   -1254.8297533155      4.66e-03  
    4   -1255.3922984689      1.30e-03  
    5   -1255.4373218078      4.15e-04  
    6   -1255.4415052949      1.99e-04  
    7   -1255.4426071422      4.85e-05  
    8   -1255.4426646966      2.14e-05  
    9   -1255.4426780657      4.83e-06  Convergence criterion met
 ---------------------------------------
 SCF time:   CPU 161.51s  wall 161.00s 
 SCF   energy in the final basis set =    -1255.4426780657
 Total energy in the final basis set =    -1255.4426780657
 
 --------------------------------------------------------------
 
                    Orbital Energies (a.u.)
 --------------------------------------------------------------
 
 Alpha MOs
 -- Occupied --
-24.7375 -24.7261 -14.3870 -10.3477 -10.2402 -10.2243 -10.2240 -10.2005
-10.2004 -10.1997 -10.1997 -10.1984 -10.1971 -10.1969 -10.1897 -10.1895
-10.1891 -10.1886 -10.1882 -10.1882 -10.1877 -10.1866 -10.1860 -10.1859
-10.1830 -10.1828 -10.1815 -10.1811 -10.1809  -1.2772  -1.2164  -1.0064
 -0.8809  -0.8659  -0.8575  -0.8444  -0.8085  -0.7898  -0.7686  -0.7628
 -0.7587  -0.7442  -0.7383  -0.7188  -0.7108  -0.6581  -0.6419  -0.6286
 -0.6228  -0.6114  -0.6038  -0.5888  -0.5826  -0.5747  -0.5645  -0.5471
 -0.5344  -0.5238  -0.5113  -0.5099  -0.5005  -0.4796  -0.4763  -0.4678
 -0.4603  -0.4538  -0.4471  -0.4432  -0.4393  -0.4385  -0.4347  -0.4338
 -0.4295  -0.4250  -0.4206  -0.4167  -0.4126  -0.4024  -0.3858  -0.3823
 -0.3748  -0.3711  -0.3690  -0.3630  -0.3583  -0.3506  -0.3435  -0.3381
 -0.3326  -0.3302  -0.2949  -0.2809  -0.2676  -0.2656  -0.2491  -0.2479
 -0.2335  -0.2099  -0.1901
 -- Virtual --
 -0.0292  -0.0214  -0.0194  -0.0126   0.0016   0.0050   0.0285   0.0509
  0.0837   0.0870   0.0933   0.1015   0.1149   0.1250   0.1273   0.1358
  0.1427   0.1481   0.1503   0.1579   0.1622   0.1647   0.1743   0.1778
  0.1825   0.1833   0.1895   0.1931   0.1998   0.2028   0.2061   0.2119
  0.2174   0.2308   0.2530   0.2707   0.2775   0.2795   0.2817   0.2969
  0.3018   0.3121   0.3203   0.3219   0.3346   0.3401   0.3499   0.3589
  0.3697   0.3760   0.3926   0.3992   0.4172   0.4373   0.4569   0.4627
  0.4700   0.4835   0.4948   0.5023   0.5146   0.5165   0.5183   0.5287
  0.5328   0.5412   0.5419   0.5460   0.5476   0.5520   0.5558   0.5576
  0.5629   0.5663   0.5712   0.5724   0.5764   0.5805   0.5829   0.5890
  0.5894   0.5944   0.5972   0.5989   0.6019   0.6042   0.6058   0.6074
  0.6101   0.6141   0.6168   0.6201   0.6221   0.6280   0.6322   0.6345
  0.6401   0.6483   0.6521   0.6576   0.6655   0.6766   0.6822   0.6850
  0.7019   0.7133   0.7231   0.7399   0.7571   0.7780   0.7821   0.7900
  0.7998   0.8033   0.8097   0.8230   0.8268   0.8291   0.8351   0.8361
  0.8406   0.8458   0.8476   0.8487   0.8535   0.8595   0.8680   0.8723
  0.8746   0.8872   0.8994   0.9099   0.9120   0.9159   0.9188   0.9346
  0.9443   0.9532   0.9614   0.9650   0.9697   0.9737   0.9818   0.9942
  1.0055   1.0178   1.0212   1.0300   1.0315   1.0561   1.0605   1.0758
  1.0810   1.1005   1.1141   1.1263   1.1350   1.1417   1.1489   1.1534
  1.1664   1.1680   1.1694   1.1743   1.1893   1.1978   1.1981   1.2140
  1.2213   1.2255   1.2321   1.2420   1.2597   1.2652   1.2914   1.3003
  1.3129   1.3264   1.3318   1.3455   1.3556   1.3646   1.3737   1.3901
  1.4101   1.4190   1.4217   1.4267   1.4356   1.4431   1.4492   1.4533
  1.4617   1.4721   1.4751   1.4812   1.4837   1.4879   1.4947   1.4970
  1.4977   1.5009   1.5040   1.5137   1.5216   1.5282   1.5519   1.6074
  1.6224   1.6411   1.6556   1.6678   1.6961   1.7111   1.7300   1.7554
  1.7619   1.7805   1.7828   1.7894   1.7940   1.7981   1.8060   1.8226
  1.8250   1.8306   1.8432   1.8460   1.8514   1.8708   1.8755   1.8820
  1.8856   1.8967   1.8996   1.9139   1.9228   1.9275   1.9351   1.9431
  1.9447   1.9628   1.9747   1.9790   1.9917   1.9995   2.0044   2.0079
  2.0256   2.0393   2.0456   2.0700   2.0759   2.0777   2.0839   2.0922
  2.0988   2.1066   2.1255   2.1289   2.1462   2.1526   2.1550   2.1594
  2.1626   2.1752   2.1844   2.1963   2.2072   2.2165   2.2252   2.2385
  2.2483   2.2551   2.2759   2.2842   2.2892   2.3045   2.3072   2.3103
  2.3242   2.3278   2.3303   2.3492   2.3632   2.3709   2.4009   2.4020
  2.4303   2.4397   2.4728   2.4990   2.5227   2.5301   2.5434   2.5593
  2.5669   2.5907   2.5971   2.6028   2.6200   2.6297   2.6398   2.6545
  2.6657   2.6719   2.6796   2.6913   2.7147   2.7260   2.7362   2.7420
  2.7473   2.7487   2.7581   2.7638   2.7681   2.7776   2.8020   2.8235
  2.8248   2.8383   2.8760   2.8963   2.9228   2.9377   2.9495   2.9817
  2.9979   3.0155   3.0595   3.1557   3.1700   3.1898   3.2436   3.3237
  3.3878   3.3956   3.4596   3.4873   3.5800   4.0833   4.0899   4.0976
  4.1081   4.1143   4.1248   4.1265   4.1286   4.1450   4.1564   4.1715
  4.1851   4.1963   4.2814   4.3043   4.3390   4.3422   4.3461   4.3952
  4.4032   4.4853   4.5053   4.5426   4.7030   4.7385   4.7632   4.8220
  4.9027   5.3034
 --------------------------------------------------------------
 
          Ground-State Mulliken Net Atomic Charges

     Atom                 Charge (a.u.)
  ----------------------------------------
      1 F                    -0.253615
      2 C                     0.530783
      3 F                    -0.238705
      4 C                    -0.290437
      5 C                     0.185258
      6 C                    -0.275607
      7 C                     0.062146
      8 C                     0.068003
      9 C                    -0.252919
     10 C                     0.079124
     11 C                     0.086081
     12 C                    -0.169768
     13 C                    -0.133729
     14 C                    -0.125490
     15 C                    -0.133444
     16 C                    -0.172114
     17 C                    -0.190246
     18 C                    -0.178549
     19 C                     0.314405
     20 N                    -0.735282
     21 C                     0.276585
     22 C                    -0.154134
     23 C                    -0.140969
     24 C                    -0.120366
     25 C                    -0.140863
     26 C                    -0.154678
     27 C                     0.319636
     28 C                    -0.174223
     29 C                    -0.211553
     30 H                     0.155838
     31 H                     0.129568
     32 H                     0.134017
     33 H                     0.128639
     34 H                     0.126837
     35 H                     0.125519
     36 H                     0.126602
     37 H                     0.127976
     38 H                     0.131496
     39 H                     0.141895
     40 H                     0.152631
     41 H                     0.137984
     42 H                     0.134185
     43 H                     0.138325
     44 H                     0.152975
     45 H                     0.142731
     46 H                     0.137448
  ----------------------------------------
  Sum of atomic charges =     0.000000

 -----------------------------------------------------------------
                    Cartesian Multipole Moments
 -----------------------------------------------------------------
    Charge (ESU x 10^10)
                 0.0000
    Dipole Moment (Debye)
         X       0.5869      Y       2.6171      Z       0.0528
       Tot       2.6826
    Quadrupole Moments (Debye-Ang)
        XX    -161.3324     XY     -11.7085     YY    -145.9034
        XZ      -4.8004     YZ      -3.6079     ZZ    -163.9515
    Octopole Moments (Debye-Ang^2)
       XXX       6.2701    XXY      20.7324    XYY     -10.6188
       YYY      32.3233    XXZ      -4.7358    XYZ     -26.1741
       YYZ       0.1093    XZZ     -33.1463    YZZ     -11.9686
       ZZZ      -1.7591
    Hexadecapole Moments (Debye-Ang^3)
      XXXX  -11819.1679   XXXY    -103.7489   XXYY   -3257.7429
      XYYY     -56.8185   YYYY   -6832.9353   XXXZ    -172.2735
      XXYZ     -23.1829   XYYZ     -10.0328   YYYZ     -85.6698
      XXZZ   -2119.5547   XYZZ      97.2025   YYZZ   -1268.3386
      XZZZ      -6.5453   YZZZ      -0.2336   ZZZZ    -426.2785
 -----------------------------------------------------------------
Archival summary:
1\1\nia2015.scinet.local\SP\ProcedureUnspecified\6-31G*\212617\rhickman\TueFeb813:57:002022TueFeb813:57:002022\0\\#,ProcedureUnspecified,6-31G*,\\0,1\N\C,1,1.37632\C,1,1.38143,2,108.385\C,3,1.3875,1,129.794,2,-177.547,0\H,4,1.07957,3,121.256,1,-0.212155,0\C,4,1.37965,3,117.961,1,178.968,0\H,6,1.07997,4,119.089,3,-179.165,0\C,2,1.38891,1,129.923,3,-177.454,0\H,8,1.07926,2,121.133,1,-0.613721,0\C,8,1.37813,2,118.385,1,178.678,0\H,10,1.07709,8,118.491,2,179.945,0\C,6,1.4017,4,122.141,3,-0.752761,0\C,12,1.38876,6,119.618,4,-0.626284,0\H,13,1.07947,12,120.486,6,179.842,0\C,13,1.38612,12,119.197,6,0.968287,0\C,1,1.40339,2,125.87,3,179.828,0\C,16,1.39151,1,120.136,2,50.9196,0\H,17,1.07977,16,119.561,1,1.10862,0\C,17,1.38262,16,119.893,1,-179.742,0\H,19,1.07982,17,119.629,16,179.988,0\C,19,1.38499,17,120.299,16,-0.50427,0\H,21,1.07941,19,120.081,17,-179.76,0\C,21,1.38499,19,119.839,17,0.252287,0\H,23,1.07987,21,120.068,19,179.729,0\C,23,1.38259,21,120.296,19,0.247987,0\H,25,1.07978,23,120.552,21,178.609,0\C,10,1.4054,8,121.891,2,-0.391818,0\C,27,1.39369,10,119.416,8,-0.844791,0\H,28,1.07972,27,120.331,10,-178.904,0\C,28,1.38352,27,119.493,10,0.843606,0\C,27,1.45265,10,122.856,8,179.73,0\H,31,1.0808,27,116.26,10,178.306,0\C,31,1.32494,27,129.027,10,-1.89374,0\F,33,1.32994,31,128.383,27,-0.0228184,0\F,33,1.33505,31,122.964,27,-179.923,0\C,12,1.47082,6,119.991,4,179.863,0\C,36,1.39298,12,120.706,6,-42.2609,0\H,37,1.08053,36,119.5,12,-1.06057,0\C,37,1.38235,36,120.649,12,-179.784,0\H,39,1.08052,37,119.796,36,179.633,0\C,39,1.38476,37,120.214,36,-0.226525,0\H,41,1.08002,39,120.175,37,-179.869,0\C,41,1.38479,39,119.645,37,0.12293,0\H,43,1.08051,41,119.987,39,-179.74,0\C,43,1.38231,41,120.211,39,0.101104,0\H,45,1.08049,43,119.858,41,-178.916,0\\\@

 Total job time:  162.43s(wall), 162.02s(cpu) 
 Tue Feb  8 13:57:00 2022

        *************************************************************
        *                                                           *
        *  Thank you very much for using Q-Chem.  Have a nice day.  *
        *                                                           *
        *************************************************************


