37
 energy: -57.034630799281 gnorm: 0.000067225944 xtb: 6.4.1 (23d549d)
C        -5.93443791540000   -1.81530480480000    0.22981836140000
C        -5.90560419210000   -0.49044254490000    0.16518665150000
C        -4.67447958140000    0.28878485190000    0.07598017900000
C        -4.72297700950000    1.68636099220000    0.05195979980000
C        -3.53685073760000    2.39505362330000   -0.02508847390000
C        -2.34312996270000    1.69890690580000   -0.07594331140000
C        -2.38518036140000    0.30297204450000   -0.05037129270000
C        -1.14442798880000   -0.48596115900000   -0.10065930990000
C        -1.19171897040000   -1.87956956900000   -0.17358534790000
C         0.00000381120000   -2.58108246540000   -0.21287732430000
C         1.19172317000000   -1.87956641930000   -0.17354052660000
C         1.14442639580000   -0.48595827240000   -0.10060954100000
C         2.38517566250000    0.30297630870000   -0.05027116830000
C         2.34311382430000    1.69891510110000   -0.07560700440000
C         3.53683595150000    2.39506113540000   -0.02477479830000
C         4.72297627340000    1.68636391090000    0.05201518210000
C         4.67448732180000    0.28878449020000    0.07585786520000
C         5.90562238590000   -0.49045065050000    0.16485993480000
C         5.93443824050000   -1.81529352630000    0.22989085110000
N         3.52348759910000   -0.37415073490000    0.02245208710000
N        -0.00000247990000    0.18715878910000   -0.06969444710000
N        -3.52348119830000   -0.37415170130000    0.02255047450000
H        -6.85731257560000   -2.36519640590000    0.29766406490000
H        -5.01915911490000   -2.38092753390000    0.21732677250000
H        -6.82105174370000    0.08675354450000    0.18078200110000
H        -5.67346480980000    2.19692160910000    0.09510376350000
H        -3.54461377250000    3.47595629990000   -0.04460648350000
H        -1.38978465160000    2.19650342480000   -0.13470240380000
H        -2.15059457390000   -2.36990953430000   -0.19839316220000
H         0.00000636450000   -3.66045373210000   -0.27236864840000
H         2.15060135930000   -2.36990305680000   -0.19831592710000
H         1.38975839650000    2.19651482660000   -0.13417265380000
H         3.54458969320000    3.47596698550000   -0.04411724530000
H         5.67346650170000    2.19692329940000    0.09511877580000
H         6.82109082290000    0.08672465720000    0.17998622940000
H         5.01913784570000   -2.38089240280000    0.21788984180000
H         6.85731965120000   -2.36519307160000    0.29758081760000
