
Running Job 1 of 1 fragments/B014/conf-0/spe_input.inp
qchem fragments/B014/conf-0/spe_input.inp_366523.0 /gpfs/fs0/scratch/a/aspuru/rhickman/descriptor_computation/qchem366523/ 0
/scinet/niagara/software/commercial/qc52/exe/qcprog.exe_s fragments/B014/conf-0/spe_input.inp_366523.0 /gpfs/fs0/scratch/a/aspuru/rhickman/descriptor_computation/qchem366523/
                  Welcome to Q-Chem
     A Quantum Leap Into The Future Of Chemistry


 Q-Chem 5.2, Q-Chem, Inc., Pleasanton, CA (2019)

 License issued to: SRG Alan Aspuru-Guzik, University of Toronto

 Yihan Shao,  Zhengting Gan,  E. Epifanovsky,  A. T. B. Gilbert,  M. Wormit,  
 J. Kussmann,  A. W. Lange,  A. Behn,  Jia Deng,  Xintian Feng,  D. Ghosh,  
 M. Goldey,  P. R. Horn,  L. D. Jacobson,  I. Kaliman,  T. Kus,  A. Landau,  
 Jie Liu,  E. I. Proynov,  R. M. Richard,  R. P. Steele,  E. J. Sundstrom,  
 H. L. Woodcock III,  P. M. Zimmerman,  D. Zuev,  B. Albrecht,  E. Alguire,  
 S. A. Baeppler,  D. Barton,  Z. Benda,  Y. A. Bernard,  E. J. Berquist,  
 K. B. Bravaya,  H. Burton,  D. Casanova,  Chun-Min Chang,  Yunqing Chen,  
 A. Chien,  K. D. Closser,  M. P. Coons,  S. Coriani,  S. Dasgupta,  
 A. L. Dempwolff,  M. Diedenhofen,  Hainam Do,  R. G. Edgar,  Po-Tung Fang,  
 S. Faraji,  S. Fatehi,  Qingguo Feng,  K. D. Fenk,  J. Fosso-Tande,  
 J. Gayvert,  Qinghui Ge,  A. Ghysels,  G. Gidofalvi,  J. Gomes,  
 J. Gonthier,  A. Gunina,  D. Hait,  M. W. D. Hanson-Heine,  
 P. H. P. Harbach,  A. W. Hauser,  M. F. Herbst,  J. E. Herr,  
 E. G. Hohenstein,  Z. C. Holden,  Kerwin Hui,  B. C. Huynh,  T.-C. Jagau,  
 Hyunjun Ji,  B. Kaduk,  K. Khistyaev,  Jaehoon Kim,  P. Klunzinger,  K. Koh,  
 D. Kosenkov,  L. Koulias,  T. Kowalczyk,  C. M. Krauter,  A. Kunitsa,  
 Ka Un Lao,  A. Laurent,  K. V. Lawler,  Joonho Lee,  D. Lefrancois,  
 S. Lehtola,  D. S. Levine,  Yi-Pei Li,  You-Sheng Lin,  Fenglai Liu,  
 E. Livshits,  A. Luenser,  P. Manohar,  E. Mansoor,  S. F. Manzer,  
 Shan-Ping Mao,  Yuezhi Mao,  N. Mardirossian,  A. V. Marenich,  
 T. Markovich,  L. A. Martinez-Martinez,  S. A. Maurer,  N. J. Mayhall,  
 S. C. McKenzie,  J.-M. Mewes,  P. Morgante,  A. F. Morrison,  
 J. W. Mullinax,  K. Nanda,  T. S. Nguyen-Beck,  R. Olivares-Amaya,  
 J. A. Parkhill,  Zheng Pei,  T. M. Perrine,  F. Plasser,  P. Pokhilko,  
 S. Prager,  A. Prociuk,  E. Ramos,  D. R. Rehn,  F. Rob,  M. Scheurer,  
 M. Schneider,  N. Sergueev,  S. M. Sharada,  S. Sharma,  D. W. Small,  
 T. Stauch,  T. Stein,  Yu-Chuan Su,  A. J. W. Thom,  A. Tkatchenko,  
 T. Tsuchimochi,  N. M. Tubman,  L. Vogt,  M. L. Vidal,  O. Vydrov,  
 M. A. Watson,  J. Wenzel,  M. de Wergifosse,  T. A. Wesolowski,  A. White,  
 J. Witte,  A. Yamada,  Jun Yang,  K. Yao,  S. Yeganeh,  S. R. Yost,  
 Zhi-Qiang You,  A. Zech,  Igor Ying Zhang,  Xing Zhang,  Yan Zhao,  
 Ying Zhu,  B. R. Brooks,  G. K. L. Chan,  C. J. Cramer,  M. S. Gordon,  
 W. J. Hehre,  A. Klamt,  M. W. Schmidt,  C. D. Sherrill,  D. G. Truhlar,  
 A. Aspuru-Guzik,  R. Baer,  A. T. Bell,  N. A. Besley,  Jeng-Da Chai,  
 A. E. DePrince, III,  R. A. DiStasio Jr.,  A. Dreuw,  B. D. Dunietz,  
 T. R. Furlani,  Chao-Ping Hsu,  Yousung Jung,  Jing Kong,  D. S. Lambrecht,  
 WanZhen Liang,  C. Ochsenfeld,  V. A. Rassolov,  L. V. Slipchenko,  
 J. E. Subotnik,  T. Van Voorhis,  J. M. Herbert,  A. I. Krylov,  
 P. M. W. Gill,  M. Head-Gordon

 Contributors to earlier versions of Q-Chem not listed above: 
 R. D. Adamson,  B. Austin,  J. Baker,  G. J. O. Beran,  K. Brandhorst,  
 S. T. Brown,  E. F. C. Byrd,  A. K. Chakraborty,  C.-L. Cheng,  
 Siu Hung Chien,  D. M. Chipman,  D. L. Crittenden,  H. Dachsel,  
 R. J. Doerksen,  A. D. Dutoi,  L. Fusti-Molnar,  W. A. Goddard III,  
 A. Golubeva-Zadorozhnaya,  S. R. Gwaltney,  G. Hawkins,  A. Heyden,  
 S. Hirata,  G. Kedziora,  F. J. Keil,  C. Kelley,  Jihan Kim,  R. A. King,  
 R. Z. Khaliullin,  P. P. Korambath,  W. Kurlancheek,  A. M. Lee,  M. S. Lee,  
 S. V. Levchenko,  Ching Yeh Lin,  D. Liotard,  R. C. Lochan,  I. Lotan,  
 P. E. Maslen,  N. Nair,  D. P. O'Neill,  D. Neuhauser,  E. Neuscamman,  
 C. M. Oana,  R. Olson,  B. Peters,  R. Peverati,  P. A. Pieniazek,  
 Y. M. Rhee,  J. Ritchie,  M. A. Rohrdanz,  E. Rosta,  N. J. Russ,  
 H. F. Schaefer III,  N. E. Schultz,  N. Shenvi,  A. C. Simmonett,  A. Sodt,  
 D. Stuck,  K. S. Thanthiriwatte,  V. Vanovschi,  Tao Wang,  A. Warshel,  
 C. F. Williams,  Q. Wu,  X. Xu,  W. Zhang

 Please cite Q-Chem as follows:
 Y. Shao et al., Mol. Phys. 113, 184-215 (2015)
 DOI: 10.1080/00268976.2014.952696

 Q-Chem 5.2.1 for Intel X86 EM64T Linux

 Parts of Q-Chem use Armadillo 8.300.2 (Tropical Shenanigans).
 http://arma.sourceforge.net/

 Q-Chem begins on Tue Feb  8 16:58:45 2022  

Host: 
0

     Scratch files written to /gpfs/fs0/scratch/a/aspuru/rhickman/descriptor_computation/qchem366523//
 Jul1719 |scratch|qcdevops|jenkins|workspace|build_RNUM -1
Processing $rem in /scinet/niagara/software/commercial/qc52/config/preferences:
	 MEM_TOTAL  4000 
NAlpha2: 102
NElect   102
Mult     1

Checking the input file for inconsistencies... 	...done.

--------------------------------------------------------------
User input:
--------------------------------------------------------------
$molecule
0 1
C         3.54993633990000   -2.74147840750000    0.02832014830000
C         3.40257886170000   -1.42303202280000   -0.00922179480000
C         2.14501656850000   -0.68257066010000   -0.00794389290000
C         0.89822136680000   -1.30651949130000   -0.01072003960000
C        -0.27638422300000   -0.56209032200000   -0.00815504880000
C        -1.53848196110000   -1.28726722170000   -0.01150857330000
C        -2.77283503710000   -0.80756333420000    0.00006967760000
F        -3.16198749690000    0.46345936510000    0.01779971420000
F        -3.85572612600000   -1.58468732430000   -0.00426108700000
C        -0.21175138220000    0.83369920970000   -0.00313496400000
C         1.02302725070000    1.46766100570000   -0.00192017160000
O         1.19956244420000    2.81572808710000    0.00161804190000
C         0.06311990120000    3.64704650350000    0.00422059710000
C         2.19124743370000    0.70679373080000   -0.00503847670000
H         4.52661947730000   -3.19399109070000    0.02486003760000
H         2.71805032700000   -3.42349574850000    0.06535796760000
H         4.28655018710000   -0.79839967840000   -0.04134270270000
H         0.83556006030000   -2.38273839010000   -0.01686823920000
H        -1.47129589960000   -2.36568635110000   -0.02403874350000
H        -1.11927061130000    1.41068562530000   -0.00133880270000
H         0.44573487030000    4.66637046910000    0.00584715370000
H        -0.54889777100000    3.48909503510000    0.89775406140000
H        -0.55049209040000    3.49260416080000   -0.88883288620000
H         3.13609711960000    1.22792718900000   -0.00396965800000
$end

$rem
BASIS = 6-31G*
GUI = 2
METHOD = B3LYP
PRINT_ORBITALS false
MOLDEN_FORMAT false
--------------------------------------------------------------
 ----------------------------------------------------------------
             Standard Nuclear Orientation (Angstroms)
    I     Atom           X                Y                Z
 ----------------------------------------------------------------
    1      C       3.6406698004    -2.5091412864     0.0273086100
    2      C       3.4015340479    -1.2042086004    -0.0099643027
    3      C       2.0953028134    -0.5534359666    -0.0083752102
    4      C       0.8951565965    -1.2629849525    -0.0110992602
    5      C      -0.3285978085    -0.6024574335    -0.0082336348
    6      C      -1.5369354319    -1.4140562620    -0.0115520910
    7      C      -2.8017909432    -1.0217836377     0.0002849514
    8      F      -3.2788083796     0.2189347944     0.0183080136
    9      F      -3.8277300939    -1.8726794437    -0.0040449753
   10      C      -0.3616598574     0.7944355829    -0.0029588063
   11      C       0.8257992286     1.5131336180    -0.0017925824
   12      O       0.9077005952     2.8702408402     0.0019761141
   13      C      -0.2840558629     3.6201120206     0.0048905096
   14      C       2.0443324473     0.8357620653    -0.0052137557
   15      H       4.6465863649    -2.8922965870     0.0236299565
   16      H       2.8584822450    -3.2476301228     0.0643310177
   17      H       4.2396903794    -0.5193256382    -0.0420877326
   18      H       0.9078536269    -2.3409505880    -0.0174421310
   19      H      -1.3945556581    -2.4851418832    -0.0242950429
   20      H      -1.3072800522     1.3065937932    -0.0009300246
   21      H       0.0263937487     4.6636809564     0.0066573922
   22      H      -0.8834065030     3.4196191352     0.8984775296
   23      H      -0.8855085920     3.4233277748    -0.8881084897
   24      H       2.9504557580     1.4216473954    -0.0041752988
 ----------------------------------------------------------------
 Molecular Point Group                 C1    NOp =  1
 Largest Abelian Subgroup              C1    NOp =  1
 Nuclear Repulsion Energy =         838.33454601 hartrees
 There are       51 alpha and       51 beta electrons
 Requested basis set is 6-31G(d)
 There are 76 shells and 230 basis functions

 Total QAlloc Memory Limit   4000 MB
 Mega-Array Size       188 MB
 MEM_STATIC part       192 MB
 A cutoff of  1.0D-08 yielded   1838 shell pairs
 There are     17950 function pairs
 Smallest overlap matrix eigenvalue = 3.63E-04

 Scale SEOQF with 1.000000e-01/1.000000e-01/1.000000e+00

 Standard Electronic Orientation quadrupole field applied
 Nucleus-field energy     =     0.0000000441 hartrees
 Guess from superposition of atomic densities
 Warning:  Energy on first SCF cycle will be non-variational
 SAD guess density has 102.000000 electrons

 -----------------------------------------------------------------------
  General SCF calculation program by
  Eric Jon Sundstrom, Paul Horn, Yuezhi Mao, Dmitri Zuev, Alec White,
  David Stuck, Shaama M.S., Shane Yost, Joonho Lee, David Small,
  Daniel Levine, Susi Lehtola, Hugh Burton, Evgeny Epifanovsky,
  Bang C. Huynh
 -----------------------------------------------------------------------
 Exchange:     0.2000 Hartree-Fock + 0.0800 Slater + 0.7200 B88
 Correlation:  0.1900 VWN1RPA + 0.8100 LYP
 Using SG-1 standard quadrature grid
 A restricted SCF calculation will be
 performed using DIIS
 SCF converges when DIIS error is below 1.0e-05
 ---------------------------------------
  Cycle       Energy         DIIS error
 ---------------------------------------
    1    -703.1483526182      5.26e-02  
    2    -699.8077475653      5.84e-03  
    3    -699.6097221954      7.91e-03  
    4    -700.0186238912      1.67e-03  
    5    -700.0370196256      5.01e-04  
    6    -700.0383112780      2.45e-04  
    7    -700.0386994562      5.49e-05  
    8    -700.0387174957      1.87e-05  
    9    -700.0387197544      4.69e-06  Convergence criterion met
 ---------------------------------------
 SCF time:   CPU 32.91s  wall 33.00s 
 SCF   energy in the final basis set =     -700.0387197544
 Total energy in the final basis set =     -700.0387197544
 
 --------------------------------------------------------------
 
                    Orbital Energies (a.u.)
 --------------------------------------------------------------
 
 Alpha MOs
 -- Occupied --
-24.7456 -24.7342 -19.1786 -10.3567 -10.2469 -10.2403 -10.2073 -10.2031
-10.1966 -10.1902 -10.1841 -10.1823 -10.1818 -10.1803  -1.2858  -1.2247
 -1.0693  -0.8685  -0.8147  -0.7857  -0.7508  -0.7273  -0.7014  -0.6464
 -0.6245  -0.6047  -0.5721  -0.5675  -0.5222  -0.5194  -0.5162  -0.4917
 -0.4884  -0.4719  -0.4504  -0.4415  -0.4402  -0.4372  -0.4310  -0.4121
 -0.3983  -0.3894  -0.3822  -0.3618  -0.3506  -0.3377  -0.3290  -0.3178
 -0.2604  -0.2209  -0.2142
 -- Virtual --
 -0.0337  -0.0162   0.0531   0.0876   0.0890   0.1046   0.1084   0.1224
  0.1349   0.1498   0.1526   0.1635   0.1684   0.1750   0.1921   0.2053
  0.2133   0.2263   0.2647   0.2868   0.3107   0.3213   0.3492   0.3648
  0.4105   0.4290   0.4426   0.4651   0.4970   0.5102   0.5205   0.5248
  0.5322   0.5382   0.5417   0.5541   0.5704   0.5775   0.5845   0.5858
  0.5874   0.6149   0.6168   0.6174   0.6388   0.6510   0.6629   0.6704
  0.7020   0.7220   0.7416   0.7647   0.7787   0.7908   0.8215   0.8360
  0.8465   0.8510   0.8576   0.8675   0.8885   0.8986   0.9270   0.9318
  0.9380   0.9500   0.9605   0.9842   1.0189   1.0492   1.0515   1.0783
  1.0800   1.1134   1.1214   1.1303   1.1595   1.1612   1.2040   1.2152
  1.2354   1.2479   1.2514   1.2762   1.3189   1.3309   1.3400   1.3656
  1.3777   1.4032   1.4136   1.4504   1.4596   1.4647   1.4745   1.4826
  1.5161   1.5270   1.5278   1.5337   1.5887   1.6465   1.6769   1.7005
  1.7319   1.7755   1.7811   1.8000   1.8162   1.8360   1.8365   1.8697
  1.8853   1.8973   1.9058   1.9507   1.9575   1.9629   1.9691   1.9868
  1.9993   2.0069   2.0229   2.0291   2.0301   2.0914   2.1139   2.1187
  2.1400   2.1505   2.1834   2.2180   2.2294   2.2387   2.2557   2.2619
  2.2905   2.3335   2.3502   2.3844   2.3871   2.4249   2.4869   2.5233
  2.5244   2.5681   2.5881   2.6092   2.6392   2.6486   2.6927   2.7048
  2.7150   2.7574   2.8224   2.8674   2.9221   2.9467   3.0058   3.0586
  3.0795   3.1441   3.2217   3.3304   3.4905   4.0553   4.0795   4.0937
  4.1315   4.1517   4.2167   4.2399   4.2726   4.3574   4.4914   4.5310
  4.7689   4.8416   5.3016
 --------------------------------------------------------------
 
          Ground-State Mulliken Net Atomic Charges

     Atom                 Charge (a.u.)
  ----------------------------------------
      1 C                    -0.353183
      2 C                    -0.111435
      3 C                     0.186973
      4 C                    -0.269136
      5 C                     0.204287
      6 C                    -0.295526
      7 C                     0.540366
      8 F                    -0.236292
      9 F                    -0.249410
     10 C                    -0.280615
     11 C                     0.393842
     12 O                    -0.509563
     13 C                    -0.215028
     14 C                    -0.255034
     15 H                     0.145038
     16 H                     0.143040
     17 H                     0.129135
     18 H                     0.121585
     19 H                     0.160104
     20 H                     0.139629
     21 H                     0.169681
     22 H                     0.153469
     23 H                     0.153401
     24 H                     0.134672
  ----------------------------------------
  Sum of atomic charges =     0.000000

 -----------------------------------------------------------------
                    Cartesian Multipole Moments
 -----------------------------------------------------------------
    Charge (ESU x 10^10)
                 0.0000
    Dipole Moment (Debye)
         X      -0.0936      Y       0.4492      Z      -0.0064
       Tot       0.4589
    Quadrupole Moments (Debye-Ang)
        XX     -79.6956     XY      -4.7845     YY     -69.8049
        XZ      -0.0298     YZ      -0.0394     ZZ     -82.2601
    Octopole Moments (Debye-Ang^2)
       XXX     -12.0381    XXY       2.3626    XYY     -23.2793
       YYY      16.0295    XXZ      -0.2894    XYZ      -0.1994
       YYZ       0.3373    XZZ     -26.3390    YZZ       4.5977
       ZZZ       0.1778
    Hexadecapole Moments (Debye-Ang^3)
      XXXX   -2449.2338   XXXY      10.0111   XXYY    -696.9383
      XYYY      -4.1416   YYYY   -1504.9822   XXXZ      -1.7081
      XXYZ      -0.6015   XYYZ       0.8096   YYYZ      -0.4488
      XXZZ    -448.7424   XYZZ      28.7015   YYZZ    -305.7009
      XZZZ      -0.6110   YZZZ       0.1898   ZZZZ     -85.1908
 -----------------------------------------------------------------
Archival summary:
1\1\nia2015.scinet.local\SP\ProcedureUnspecified\6-31G*\211110\rhickman\TueFeb816:59:182022TueFeb816:59:182022\0\\#,ProcedureUnspecified,6-31G*,\\0,1\F\C,1,1.32938\C,2,1.32434,1,128.263\H,3,1.08058,2,114.806,1,179.922,0\F,2,1.33289,1,108.642,3,179.974,0\C,3,1.4556,2,128.878,1,-0.00471541,0\C,6,1.39064,3,117.753,2,179.439,0\H,7,1.07806,6,119.033,3,0.110292,0\C,7,1.39421,6,121.049,3,179.992,0\C,9,1.39014,7,118.491,6,-0.117709,0\H,10,1.07904,9,120.785,7,-179.93,0\C,10,1.39415,9,121.171,7,0.142151,0\O,12,1.35958,10,115.616,9,179.959,0\C,12,1.38802,10,119.746,9,-0.0685594,0\H,14,1.07541,12,120.375,10,-179.964,0\C,13,1.40805,12,118.725,10,179.968,0\H,16,1.08877,13,105.612,12,-179.947,0\H,16,1.09449,13,111.569,12,61.4103,0\H,16,1.09449,13,111.572,12,-61.307,0\C,9,1.45937,7,122.925,6,179.942,0\H,20,1.08287,9,114.255,7,177.99,0\C,20,1.32719,9,126.848,7,-2.23177,0\H,22,1.07636,20,122.999,9,-0.021066,0\H,22,1.07642,20,121.216,9,-179.92,0\\\@

 Total job time:  33.20s(wall), 33.09s(cpu) 
 Tue Feb  8 16:59:18 2022

        *************************************************************
        *                                                           *
        *  Thank you very much for using Q-Chem.  Have a nice day.  *
        *                                                           *
        *************************************************************


