26
 energy: -49.805560819784 gnorm: 0.000044330213 xtb: 6.4.1 (23d549d)
C         2.21037777530000   -3.03556643300000   -0.00891885790000
C         2.48925081780000   -1.80490524450000    0.39904487200000
C         1.64175220660000   -0.63468994380000    0.16260853280000
C         0.25755203050000   -0.78141688380000    0.17477850140000
C        -0.55141124930000    0.32196815470000   -0.00351246990000
O        -1.96890772310000    0.27821640280000   -0.00380429420000
C        -2.59151081290000   -0.87243188990000    0.03508686620000
F        -2.41507699430000   -1.57225357290000    1.17475420120000
F        -3.90212460940000   -0.66200741260000   -0.07171159900000
F        -2.26121884970000   -1.72627408950000   -0.95480158060000
C        -0.00570936060000    1.57831760350000   -0.19118307000000
C         1.37192182760000    1.75403294430000   -0.21666947450000
C         1.92258515790000    3.08893774670000   -0.45452554860000
C         1.37993373120000    4.21820712170000   -0.02101312320000
C         2.21389168220000    0.63587338670000   -0.04321302550000
N         3.57991085940000    0.78515723300000   -0.00598302280000
H         2.85923997180000   -3.86484538020000    0.21465730390000
H         1.33285965610000   -3.26008179050000   -0.59142860850000
H         3.39436748380000   -1.62358824590000    0.96555699420000
H        -0.14975338530000   -1.76310744330000    0.35105571450000
H        -0.66572704270000    2.41568395280000   -0.34204563930000
H         2.83187521620000    3.13838904320000   -1.04320267800000
H         0.49177727170000    4.22580335880000    0.58707932870000
H         1.81495345610000    5.17687706060000   -0.24516545280000
H         3.95498911060000    1.65874903980000   -0.33327356760000
H         4.13495917280000   -0.02589378680000   -0.21769231420000
