
Running Job 1 of 1 fragments/B023/conf-1/spe_input.inp
qchem fragments/B023/conf-1/spe_input.inp_268540.0 /gpfs/fs0/scratch/a/aspuru/rhickman/descriptor_computation/qchem268540/ 0
/scinet/niagara/software/commercial/qc52/exe/qcprog.exe_s fragments/B023/conf-1/spe_input.inp_268540.0 /gpfs/fs0/scratch/a/aspuru/rhickman/descriptor_computation/qchem268540/
                  Welcome to Q-Chem
     A Quantum Leap Into The Future Of Chemistry


 Q-Chem 5.2, Q-Chem, Inc., Pleasanton, CA (2019)

 License issued to: SRG Alan Aspuru-Guzik, University of Toronto

 Yihan Shao,  Zhengting Gan,  E. Epifanovsky,  A. T. B. Gilbert,  M. Wormit,  
 J. Kussmann,  A. W. Lange,  A. Behn,  Jia Deng,  Xintian Feng,  D. Ghosh,  
 M. Goldey,  P. R. Horn,  L. D. Jacobson,  I. Kaliman,  T. Kus,  A. Landau,  
 Jie Liu,  E. I. Proynov,  R. M. Richard,  R. P. Steele,  E. J. Sundstrom,  
 H. L. Woodcock III,  P. M. Zimmerman,  D. Zuev,  B. Albrecht,  E. Alguire,  
 S. A. Baeppler,  D. Barton,  Z. Benda,  Y. A. Bernard,  E. J. Berquist,  
 K. B. Bravaya,  H. Burton,  D. Casanova,  Chun-Min Chang,  Yunqing Chen,  
 A. Chien,  K. D. Closser,  M. P. Coons,  S. Coriani,  S. Dasgupta,  
 A. L. Dempwolff,  M. Diedenhofen,  Hainam Do,  R. G. Edgar,  Po-Tung Fang,  
 S. Faraji,  S. Fatehi,  Qingguo Feng,  K. D. Fenk,  J. Fosso-Tande,  
 J. Gayvert,  Qinghui Ge,  A. Ghysels,  G. Gidofalvi,  J. Gomes,  
 J. Gonthier,  A. Gunina,  D. Hait,  M. W. D. Hanson-Heine,  
 P. H. P. Harbach,  A. W. Hauser,  M. F. Herbst,  J. E. Herr,  
 E. G. Hohenstein,  Z. C. Holden,  Kerwin Hui,  B. C. Huynh,  T.-C. Jagau,  
 Hyunjun Ji,  B. Kaduk,  K. Khistyaev,  Jaehoon Kim,  P. Klunzinger,  K. Koh,  
 D. Kosenkov,  L. Koulias,  T. Kowalczyk,  C. M. Krauter,  A. Kunitsa,  
 Ka Un Lao,  A. Laurent,  K. V. Lawler,  Joonho Lee,  D. Lefrancois,  
 S. Lehtola,  D. S. Levine,  Yi-Pei Li,  You-Sheng Lin,  Fenglai Liu,  
 E. Livshits,  A. Luenser,  P. Manohar,  E. Mansoor,  S. F. Manzer,  
 Shan-Ping Mao,  Yuezhi Mao,  N. Mardirossian,  A. V. Marenich,  
 T. Markovich,  L. A. Martinez-Martinez,  S. A. Maurer,  N. J. Mayhall,  
 S. C. McKenzie,  J.-M. Mewes,  P. Morgante,  A. F. Morrison,  
 J. W. Mullinax,  K. Nanda,  T. S. Nguyen-Beck,  R. Olivares-Amaya,  
 J. A. Parkhill,  Zheng Pei,  T. M. Perrine,  F. Plasser,  P. Pokhilko,  
 S. Prager,  A. Prociuk,  E. Ramos,  D. R. Rehn,  F. Rob,  M. Scheurer,  
 M. Schneider,  N. Sergueev,  S. M. Sharada,  S. Sharma,  D. W. Small,  
 T. Stauch,  T. Stein,  Yu-Chuan Su,  A. J. W. Thom,  A. Tkatchenko,  
 T. Tsuchimochi,  N. M. Tubman,  L. Vogt,  M. L. Vidal,  O. Vydrov,  
 M. A. Watson,  J. Wenzel,  M. de Wergifosse,  T. A. Wesolowski,  A. White,  
 J. Witte,  A. Yamada,  Jun Yang,  K. Yao,  S. Yeganeh,  S. R. Yost,  
 Zhi-Qiang You,  A. Zech,  Igor Ying Zhang,  Xing Zhang,  Yan Zhao,  
 Ying Zhu,  B. R. Brooks,  G. K. L. Chan,  C. J. Cramer,  M. S. Gordon,  
 W. J. Hehre,  A. Klamt,  M. W. Schmidt,  C. D. Sherrill,  D. G. Truhlar,  
 A. Aspuru-Guzik,  R. Baer,  A. T. Bell,  N. A. Besley,  Jeng-Da Chai,  
 A. E. DePrince, III,  R. A. DiStasio Jr.,  A. Dreuw,  B. D. Dunietz,  
 T. R. Furlani,  Chao-Ping Hsu,  Yousung Jung,  Jing Kong,  D. S. Lambrecht,  
 WanZhen Liang,  C. Ochsenfeld,  V. A. Rassolov,  L. V. Slipchenko,  
 J. E. Subotnik,  T. Van Voorhis,  J. M. Herbert,  A. I. Krylov,  
 P. M. W. Gill,  M. Head-Gordon

 Contributors to earlier versions of Q-Chem not listed above: 
 R. D. Adamson,  B. Austin,  J. Baker,  G. J. O. Beran,  K. Brandhorst,  
 S. T. Brown,  E. F. C. Byrd,  A. K. Chakraborty,  C.-L. Cheng,  
 Siu Hung Chien,  D. M. Chipman,  D. L. Crittenden,  H. Dachsel,  
 R. J. Doerksen,  A. D. Dutoi,  L. Fusti-Molnar,  W. A. Goddard III,  
 A. Golubeva-Zadorozhnaya,  S. R. Gwaltney,  G. Hawkins,  A. Heyden,  
 S. Hirata,  G. Kedziora,  F. J. Keil,  C. Kelley,  Jihan Kim,  R. A. King,  
 R. Z. Khaliullin,  P. P. Korambath,  W. Kurlancheek,  A. M. Lee,  M. S. Lee,  
 S. V. Levchenko,  Ching Yeh Lin,  D. Liotard,  R. C. Lochan,  I. Lotan,  
 P. E. Maslen,  N. Nair,  D. P. O'Neill,  D. Neuhauser,  E. Neuscamman,  
 C. M. Oana,  R. Olson,  B. Peters,  R. Peverati,  P. A. Pieniazek,  
 Y. M. Rhee,  J. Ritchie,  M. A. Rohrdanz,  E. Rosta,  N. J. Russ,  
 H. F. Schaefer III,  N. E. Schultz,  N. Shenvi,  A. C. Simmonett,  A. Sodt,  
 D. Stuck,  K. S. Thanthiriwatte,  V. Vanovschi,  Tao Wang,  A. Warshel,  
 C. F. Williams,  Q. Wu,  X. Xu,  W. Zhang

 Please cite Q-Chem as follows:
 Y. Shao et al., Mol. Phys. 113, 184-215 (2015)
 DOI: 10.1080/00268976.2014.952696

 Q-Chem 5.2.1 for Intel X86 EM64T Linux

 Parts of Q-Chem use Armadillo 8.300.2 (Tropical Shenanigans).
 http://arma.sourceforge.net/

 Q-Chem begins on Mon Feb  7 09:41:48 2022  

Host: 
0

     Scratch files written to /gpfs/fs0/scratch/a/aspuru/rhickman/descriptor_computation/qchem268540//
 Jul1719 |scratch|qcdevops|jenkins|workspace|build_RNUM -1
Processing $rem in /scinet/niagara/software/commercial/qc52/config/preferences:
	 MEM_TOTAL  4000 
NAlpha2: 126
NElect   126
Mult     1

Checking the input file for inconsistencies... 	...done.

--------------------------------------------------------------
User input:
--------------------------------------------------------------
$molecule
0 1
C        -0.25907677470000   -0.02193176290000   -2.50896421110000
C        -0.66507262360000   -1.05839880880000   -1.79012151990000
C        -1.54541405680000   -0.99725894040000   -0.62111369450000
C        -2.49871959550000   -2.00319708510000   -0.46669079040000
C        -3.40677284190000   -1.98093066730000    0.57383694920000
C        -3.37216896300000   -0.94616369610000    1.49384843180000
C        -2.41831181860000    0.04665475370000    1.37002857830000
C        -1.49364881250000    0.03206996900000    0.33028487940000
C        -0.47194838900000    1.09689282920000    0.29560845750000
C        -0.88138930650000    2.42375211100000    0.23252146150000
C         0.04232647630000    3.45216884560000    0.19745023820000
C         1.39580224630000    3.16104152700000    0.23665868570000
C         1.81899509140000    1.84801528480000    0.31878438600000
C         0.89963203880000    0.80145093000000    0.35149603580000
C         1.32202749580000   -0.58802839200000    0.48443621740000
C         2.47486914190000   -1.10493950490000    0.09364564860000
F         3.47657233810000   -0.48406393620000   -0.52032056350000
F         2.79696573430000   -2.38873005600000    0.25289268240000
H         0.36135389960000   -0.15157499870000   -3.37928830800000
H        -0.53423030360000    0.99027775630000   -2.26672372830000
H        -0.39605507750000   -2.06103671940000   -2.10120114800000
H        -2.53202250870000   -2.80466720910000   -1.19106638260000
H        -4.13993306160000   -2.76817538440000    0.66789322280000
H        -4.07869227570000   -0.91815172620000    2.30991945130000
H        -2.36827525290000    0.84223586340000    2.09991773380000
H        -1.93897558270000    2.64261647100000    0.19137631130000
H        -0.29267223460000    4.47714330700000    0.14039081750000
H         2.12322511200000    3.95831161420000    0.21129714760000
H         2.87439980380000    1.63417934490000    0.37593267640000
H         0.62215544700000   -1.27885303380000    0.93111070320000
$end

$rem
BASIS = 6-31G*
GUI = 2
METHOD = B3LYP
PRINT_ORBITALS false
MOLDEN_FORMAT false
--------------------------------------------------------------
 ----------------------------------------------------------------
             Standard Nuclear Orientation (Angstroms)
    I     Atom           X                Y                Z
 ----------------------------------------------------------------
    1      C       0.0214573432    -0.3789605879    -2.4812538472
    2      C      -0.7452323419    -1.1275734668    -1.7017687187
    3      C      -1.6638437461    -0.6321011236    -0.6741604939
    4      C      -2.8898684413    -1.2796271842    -0.5254228664
    5      C      -3.8353324395    -0.8326538749     0.3768338363
    6      C      -3.5658399252     0.2763948583     1.1615286389
    7      C      -2.3460277492     0.9161139212     1.0445625829
    8      C      -1.3825346544     0.4716677129     0.1443237400
    9      C      -0.0841890397     1.1733624004     0.1152520410
   10      C      -0.0588231852     2.5354513149    -0.1608779103
   11      C       1.1355289518     3.2313026873    -0.1987679954
   12      C       2.3250268061     2.5677757502     0.0522617563
   13      C       2.3152598989     1.2176798345     0.3472538808
   14      C       1.1196637349     0.5030639597     0.3855864720
   15      C       1.0811584685    -0.9110970077     0.7397190786
   16      C       2.0491588510    -1.7957848478     0.5686608627
   17      F       3.2433088846    -1.5969779522     0.0206355073
   18      F       1.9457738117    -3.0768569605     0.9227650671
   19      H       0.6463650737    -0.8170401894    -3.2407156401
   20      H       0.0503970309     0.6942263605    -2.4013145260
   21      H      -0.7709632035    -2.2005927769    -1.8514057388
   22      H      -3.1037197192    -2.1385603229    -1.1456526113
   23      H      -4.7802318063    -1.3473154202     0.4685585086
   24      H      -4.2987589550     0.6352585600     1.8686200828
   25      H      -2.1186180172     1.7654608436     1.6731210595
   26      H      -0.9899995610     3.0441600392    -0.3663268187
   27      H       1.1381283784     4.2876609938    -0.4227164976
   28      H       3.2615021563     3.1042082932     0.0261682622
   29      H       3.2445007057     0.7168312030     0.5675559788
   30      H       0.1662784587    -1.2898694493     1.1711164265
 ----------------------------------------------------------------
 Molecular Point Group                 C1    NOp =  1
 Largest Abelian Subgroup              C1    NOp =  1
 Nuclear Repulsion Energy =        1248.99081463 hartrees
 There are       63 alpha and       63 beta electrons
 Requested basis set is 6-31G(d)
 There are 96 shells and 294 basis functions

 Total QAlloc Memory Limit   4000 MB
 Mega-Array Size       188 MB
 MEM_STATIC part       192 MB
 A cutoff of  1.0D-08 yielded   2949 shell pairs
 There are     29454 function pairs
 Smallest overlap matrix eigenvalue = 3.34E-04

 Scale SEOQF with 1.000000e-01/1.000000e-01/1.000000e-01

 Standard Electronic Orientation quadrupole field applied
 Nucleus-field energy     =     0.0000000358 hartrees
 Guess from superposition of atomic densities
 Warning:  Energy on first SCF cycle will be non-variational
 SAD guess density has 126.000000 electrons

 -----------------------------------------------------------------------
  General SCF calculation program by
  Eric Jon Sundstrom, Paul Horn, Yuezhi Mao, Dmitri Zuev, Alec White,
  David Stuck, Shaama M.S., Shane Yost, Joonho Lee, David Small,
  Daniel Levine, Susi Lehtola, Hugh Burton, Evgeny Epifanovsky,
  Bang C. Huynh
 -----------------------------------------------------------------------
 Exchange:     0.2000 Hartree-Fock + 0.0800 Slater + 0.7200 B88
 Correlation:  0.1900 VWN1RPA + 0.8100 LYP
 Using SG-1 standard quadrature grid
 A restricted SCF calculation will be
 performed using DIIS
 SCF converges when DIIS error is below 1.0e-05
 ---------------------------------------
  Cycle       Energy         DIIS error
 ---------------------------------------
    1    -820.8816659917      4.72e-02  
    2    -816.2787092894      4.92e-03  
    3    -816.1223932206      6.24e-03  
    4    -816.5400721523      1.27e-03  
    5    -816.5565748216      4.36e-04  
    6    -816.5578947570      2.53e-04  
    7    -816.5586352200      5.13e-05  
    8    -816.5586634447      1.86e-05  
    9    -816.5586670097      5.20e-06  Convergence criterion met
 ---------------------------------------
 SCF time:   CPU 76.52s  wall 77.00s 
 SCF   energy in the final basis set =     -816.5586670097
 Total energy in the final basis set =     -816.5586670097
 
 --------------------------------------------------------------
 
                    Orbital Energies (a.u.)
 --------------------------------------------------------------
 
 Alpha MOs
 -- Occupied --
-24.7364 -24.7281 -10.3488 -10.2013 -10.1973 -10.1964 -10.1948 -10.1936
-10.1893 -10.1888 -10.1883 -10.1882 -10.1870 -10.1867 -10.1861 -10.1858
-10.1853 -10.1756  -1.2780  -1.2175  -0.8812  -0.8558  -0.8031  -0.7913
 -0.7781  -0.7358  -0.7321  -0.7187  -0.6426  -0.6312  -0.6168  -0.6003
 -0.5899  -0.5680  -0.5545  -0.5281  -0.5135  -0.5106  -0.4917  -0.4745
 -0.4692  -0.4518  -0.4450  -0.4355  -0.4315  -0.4287  -0.4235  -0.4200
 -0.4164  -0.4030  -0.3794  -0.3764  -0.3675  -0.3628  -0.3470  -0.3383
 -0.3340  -0.3031  -0.2772  -0.2647  -0.2437  -0.2271  -0.2154
 -- Virtual --
 -0.0304  -0.0239  -0.0048   0.0136   0.0488   0.0686   0.0976   0.1032
  0.1194   0.1261   0.1422   0.1484   0.1597   0.1651   0.1679   0.1727
  0.1809   0.1848   0.1909   0.1931   0.2058   0.2153   0.2634   0.2832
  0.2983   0.3099   0.3179   0.3222   0.3291   0.3488   0.3525   0.3692
  0.3932   0.4142   0.4301   0.4539   0.4843   0.4933   0.5028   0.5087
  0.5263   0.5280   0.5389   0.5477   0.5558   0.5570   0.5677   0.5732
  0.5814   0.5848   0.5947   0.6011   0.6033   0.6075   0.6090   0.6103
  0.6176   0.6224   0.6291   0.6342   0.6498   0.6563   0.6632   0.6793
  0.7015   0.7150   0.7227   0.7409   0.7811   0.7860   0.8058   0.8181
  0.8318   0.8333   0.8345   0.8390   0.8463   0.8488   0.8631   0.8763
  0.8831   0.8949   0.8992   0.9114   0.9252   0.9465   0.9509   0.9628
  0.9769   0.9978   1.0083   1.0164   1.0261   1.0552   1.0737   1.0814
  1.0965   1.1079   1.1186   1.1443   1.1601   1.1691   1.1773   1.1849
  1.1965   1.2227   1.2291   1.2402   1.2438   1.2802   1.2941   1.3242
  1.3342   1.3391   1.3557   1.3819   1.4140   1.4189   1.4392   1.4444
  1.4536   1.4673   1.4718   1.4802   1.4884   1.5002   1.5038   1.5119
  1.5332   1.5557   1.5701   1.6076   1.6619   1.6738   1.7162   1.7328
  1.7672   1.7709   1.7934   1.8057   1.8188   1.8319   1.8341   1.8508
  1.8557   1.8849   1.9005   1.9129   1.9217   1.9301   1.9428   1.9584
  1.9798   1.9835   1.9986   2.0120   2.0201   2.0287   2.0480   2.0602
  2.0700   2.1037   2.1240   2.1337   2.1458   2.1522   2.1732   2.1831
  2.2218   2.2231   2.2391   2.2509   2.2601   2.2701   2.2923   2.3073
  2.3292   2.3358   2.3472   2.3827   2.3956   2.4188   2.4333   2.4997
  2.5256   2.5327   2.5752   2.5970   2.6123   2.6316   2.6438   2.6588
  2.6873   2.6930   2.7076   2.7338   2.7539   2.7565   2.7664   2.7888
  2.8278   2.8511   2.8774   2.8880   2.9462   3.0069   3.0378   3.0778
  3.1593   3.2218   3.3112   3.4305   3.5058   4.0711   4.1050   4.1088
  4.1214   4.1335   4.1771   4.2013   4.2452   4.2832   4.3496   4.3663
  4.4259   4.4424   4.4763   4.6937   4.7845   4.8473   5.2817
 --------------------------------------------------------------
 
          Ground-State Mulliken Net Atomic Charges

     Atom                 Charge (a.u.)
  ----------------------------------------
      1 C                    -0.328826
      2 C                    -0.137985
      3 C                     0.133501
      4 C                    -0.196811
      5 C                    -0.120506
      6 C                    -0.133053
      7 C                    -0.162489
      8 C                    -0.004213
      9 C                    -0.012299
     10 C                    -0.171894
     11 C                    -0.131958
     12 C                    -0.125952
     13 C                    -0.203239
     14 C                     0.185395
     15 C                    -0.317303
     16 C                     0.552679
     17 F                    -0.239387
     18 F                    -0.251056
     19 H                     0.141968
     20 H                     0.159961
     21 H                     0.133057
     22 H                     0.130182
     23 H                     0.130271
     24 H                     0.130452
     25 H                     0.135900
     26 H                     0.133667
     27 H                     0.128550
     28 H                     0.129180
     29 H                     0.136134
     30 H                     0.176074
  ----------------------------------------
  Sum of atomic charges =     0.000000

 -----------------------------------------------------------------
                    Cartesian Multipole Moments
 -----------------------------------------------------------------
    Charge (ESU x 10^10)
                 0.0000
    Dipole Moment (Debye)
         X      -0.9744      Y       0.7614      Z       0.0270
       Tot       1.2369
    Quadrupole Moments (Debye-Ang)
        XX     -96.0590     XY       4.5206     YY     -96.9540
        XZ      -2.7862     YZ       1.8985     ZZ    -101.6407
    Octopole Moments (Debye-Ang^2)
       XXX      22.3827    XXY      -7.9236    XYY       6.6905
       YYY     -12.7554    XXZ      16.1018    XYZ      -5.0764
       YYZ      -8.4169    XZZ      13.5566    YZZ     -16.7460
       ZZZ       6.0227
    Hexadecapole Moments (Debye-Ang^3)
      XXXX   -2693.6671   XXXY      -0.3427   XXYY    -743.1639
      XYYY     -35.5656   YYYY   -1708.9769   XXXZ     -32.7867
      XXYZ      11.1981   XYYZ      -0.5351   YYYZ     -19.2502
      XXZZ    -582.7700   XYZZ     -46.5821   YYZZ    -412.2093
      XZZZ     -13.3562   YZZZ     -13.5655   ZZZZ    -675.8590
 -----------------------------------------------------------------
Archival summary:
1\1\nia0231.scinet.local\SP\ProcedureUnspecified\6-31G*\21612\rhickman\MonFeb709:43:052022MonFeb709:43:052022\0\\#,ProcedureUnspecified,6-31G*,\\0,1\F\C,1,1.32885\C,2,1.32248,1,127.663\H,3,1.08008,2,115.917,1,177.478,0\F,2,1.33313,1,108.844,3,179.043,0\C,3,1.45834,2,126.724,1,-1.37535,0\C,6,1.39341,3,121.78,2,-27.669,0\H,7,1.07836,6,119.707,3,1.05151,0\C,7,1.38198,6,120.861,3,-177.845,0\H,9,1.07955,7,119.784,6,-179.93,0\C,9,1.38499,7,120.043,6,0.564141,0\H,11,1.07984,9,120.278,7,179.563,0\C,11,1.38279,9,119.72,7,-0.396641,0\H,13,1.08078,11,120.139,9,-179.33,0\C,13,1.39003,11,120.951,9,-0.537203,0\C,15,1.47612,13,119.063,11,-179.96,0\C,16,1.3915,15,118.03,13,-58.7634,0\H,17,1.08083,16,118.786,15,1.15742,0\C,17,1.38234,16,121.194,15,-177.592,0\H,19,1.07978,17,120.037,16,179.801,0\C,19,1.38505,17,119.625,16,0.422313,0\H,21,1.07987,19,120.249,17,179.254,0\C,21,1.38121,19,119.737,17,-0.742729,0\H,23,1.08083,21,119.775,19,-179.34,0\C,23,1.39447,21,121.415,19,-0.432438,0\C,25,1.46469,23,117.98,21,-176.87,0\H,26,1.08371,25,114.641,23,-34.4996,0\C,26,1.32508,25,125.766,23,141.344,0\H,28,1.07655,26,122.348,25,1.66884,0\H,28,1.07666,26,121.393,25,-177.734,0\\\@

 Total job time:  77.03s(wall), 76.81s(cpu) 
 Mon Feb  7 09:43:05 2022

        *************************************************************
        *                                                           *
        *  Thank you very much for using Q-Chem.  Have a nice day.  *
        *                                                           *
        *************************************************************


