
Running Job 1 of 1 fragments/C056/conf-3/spe_input.inp
qchem fragments/C056/conf-3/spe_input.inp_137994.0 /gpfs/fs0/scratch/a/aspuru/rhickman/descriptor_computation/qchem137994/ 0
/scinet/niagara/software/commercial/qc52/exe/qcprog.exe_s fragments/C056/conf-3/spe_input.inp_137994.0 /gpfs/fs0/scratch/a/aspuru/rhickman/descriptor_computation/qchem137994/
                  Welcome to Q-Chem
     A Quantum Leap Into The Future Of Chemistry


 Q-Chem 5.2, Q-Chem, Inc., Pleasanton, CA (2019)

 License issued to: SRG Alan Aspuru-Guzik, University of Toronto

 Yihan Shao,  Zhengting Gan,  E. Epifanovsky,  A. T. B. Gilbert,  M. Wormit,  
 J. Kussmann,  A. W. Lange,  A. Behn,  Jia Deng,  Xintian Feng,  D. Ghosh,  
 M. Goldey,  P. R. Horn,  L. D. Jacobson,  I. Kaliman,  T. Kus,  A. Landau,  
 Jie Liu,  E. I. Proynov,  R. M. Richard,  R. P. Steele,  E. J. Sundstrom,  
 H. L. Woodcock III,  P. M. Zimmerman,  D. Zuev,  B. Albrecht,  E. Alguire,  
 S. A. Baeppler,  D. Barton,  Z. Benda,  Y. A. Bernard,  E. J. Berquist,  
 K. B. Bravaya,  H. Burton,  D. Casanova,  Chun-Min Chang,  Yunqing Chen,  
 A. Chien,  K. D. Closser,  M. P. Coons,  S. Coriani,  S. Dasgupta,  
 A. L. Dempwolff,  M. Diedenhofen,  Hainam Do,  R. G. Edgar,  Po-Tung Fang,  
 S. Faraji,  S. Fatehi,  Qingguo Feng,  K. D. Fenk,  J. Fosso-Tande,  
 J. Gayvert,  Qinghui Ge,  A. Ghysels,  G. Gidofalvi,  J. Gomes,  
 J. Gonthier,  A. Gunina,  D. Hait,  M. W. D. Hanson-Heine,  
 P. H. P. Harbach,  A. W. Hauser,  M. F. Herbst,  J. E. Herr,  
 E. G. Hohenstein,  Z. C. Holden,  Kerwin Hui,  B. C. Huynh,  T.-C. Jagau,  
 Hyunjun Ji,  B. Kaduk,  K. Khistyaev,  Jaehoon Kim,  P. Klunzinger,  K. Koh,  
 D. Kosenkov,  L. Koulias,  T. Kowalczyk,  C. M. Krauter,  A. Kunitsa,  
 Ka Un Lao,  A. Laurent,  K. V. Lawler,  Joonho Lee,  D. Lefrancois,  
 S. Lehtola,  D. S. Levine,  Yi-Pei Li,  You-Sheng Lin,  Fenglai Liu,  
 E. Livshits,  A. Luenser,  P. Manohar,  E. Mansoor,  S. F. Manzer,  
 Shan-Ping Mao,  Yuezhi Mao,  N. Mardirossian,  A. V. Marenich,  
 T. Markovich,  L. A. Martinez-Martinez,  S. A. Maurer,  N. J. Mayhall,  
 S. C. McKenzie,  J.-M. Mewes,  P. Morgante,  A. F. Morrison,  
 J. W. Mullinax,  K. Nanda,  T. S. Nguyen-Beck,  R. Olivares-Amaya,  
 J. A. Parkhill,  Zheng Pei,  T. M. Perrine,  F. Plasser,  P. Pokhilko,  
 S. Prager,  A. Prociuk,  E. Ramos,  D. R. Rehn,  F. Rob,  M. Scheurer,  
 M. Schneider,  N. Sergueev,  S. M. Sharada,  S. Sharma,  D. W. Small,  
 T. Stauch,  T. Stein,  Yu-Chuan Su,  A. J. W. Thom,  A. Tkatchenko,  
 T. Tsuchimochi,  N. M. Tubman,  L. Vogt,  M. L. Vidal,  O. Vydrov,  
 M. A. Watson,  J. Wenzel,  M. de Wergifosse,  T. A. Wesolowski,  A. White,  
 J. Witte,  A. Yamada,  Jun Yang,  K. Yao,  S. Yeganeh,  S. R. Yost,  
 Zhi-Qiang You,  A. Zech,  Igor Ying Zhang,  Xing Zhang,  Yan Zhao,  
 Ying Zhu,  B. R. Brooks,  G. K. L. Chan,  C. J. Cramer,  M. S. Gordon,  
 W. J. Hehre,  A. Klamt,  M. W. Schmidt,  C. D. Sherrill,  D. G. Truhlar,  
 A. Aspuru-Guzik,  R. Baer,  A. T. Bell,  N. A. Besley,  Jeng-Da Chai,  
 A. E. DePrince, III,  R. A. DiStasio Jr.,  A. Dreuw,  B. D. Dunietz,  
 T. R. Furlani,  Chao-Ping Hsu,  Yousung Jung,  Jing Kong,  D. S. Lambrecht,  
 WanZhen Liang,  C. Ochsenfeld,  V. A. Rassolov,  L. V. Slipchenko,  
 J. E. Subotnik,  T. Van Voorhis,  J. M. Herbert,  A. I. Krylov,  
 P. M. W. Gill,  M. Head-Gordon

 Contributors to earlier versions of Q-Chem not listed above: 
 R. D. Adamson,  B. Austin,  J. Baker,  G. J. O. Beran,  K. Brandhorst,  
 S. T. Brown,  E. F. C. Byrd,  A. K. Chakraborty,  C.-L. Cheng,  
 Siu Hung Chien,  D. M. Chipman,  D. L. Crittenden,  H. Dachsel,  
 R. J. Doerksen,  A. D. Dutoi,  L. Fusti-Molnar,  W. A. Goddard III,  
 A. Golubeva-Zadorozhnaya,  S. R. Gwaltney,  G. Hawkins,  A. Heyden,  
 S. Hirata,  G. Kedziora,  F. J. Keil,  C. Kelley,  Jihan Kim,  R. A. King,  
 R. Z. Khaliullin,  P. P. Korambath,  W. Kurlancheek,  A. M. Lee,  M. S. Lee,  
 S. V. Levchenko,  Ching Yeh Lin,  D. Liotard,  R. C. Lochan,  I. Lotan,  
 P. E. Maslen,  N. Nair,  D. P. O'Neill,  D. Neuhauser,  E. Neuscamman,  
 C. M. Oana,  R. Olson,  B. Peters,  R. Peverati,  P. A. Pieniazek,  
 Y. M. Rhee,  J. Ritchie,  M. A. Rohrdanz,  E. Rosta,  N. J. Russ,  
 H. F. Schaefer III,  N. E. Schultz,  N. Shenvi,  A. C. Simmonett,  A. Sodt,  
 D. Stuck,  K. S. Thanthiriwatte,  V. Vanovschi,  Tao Wang,  A. Warshel,  
 C. F. Williams,  Q. Wu,  X. Xu,  W. Zhang

 Please cite Q-Chem as follows:
 Y. Shao et al., Mol. Phys. 113, 184-215 (2015)
 DOI: 10.1080/00268976.2014.952696

 Q-Chem 5.2.1 for Intel X86 EM64T Linux

 Parts of Q-Chem use Armadillo 8.300.2 (Tropical Shenanigans).
 http://arma.sourceforge.net/

 Q-Chem begins on Mon Feb  7 16:55:49 2022  

Host: 
0

     Scratch files written to /gpfs/fs0/scratch/a/aspuru/rhickman/descriptor_computation/qchem137994//
 Jul1719 |scratch|qcdevops|jenkins|workspace|build_RNUM -1
Processing $rem in /scinet/niagara/software/commercial/qc52/config/preferences:
	 MEM_TOTAL  4000 
NAlpha2: 246
NElect   246
Mult     1

Checking the input file for inconsistencies... 	...done.

--------------------------------------------------------------
User input:
--------------------------------------------------------------
$molecule
0 1
C        -0.36552929890000    1.83510039580000   -3.11030048380000
C        -0.95248408680000    1.32721696320000   -2.03251403480000
C        -1.05498024510000    1.92238076250000   -0.70811117050000
C        -2.01565475270000    1.39700323050000    0.15475775460000
C        -2.22961680570000    1.86629396020000    1.44123722340000
O        -3.17321610250000    1.35123143480000    2.28393599400000
C        -3.79236313830000    0.12195112510000    1.96698686770000
C        -2.83573845100000   -1.06723558780000    2.10875506670000
C        -3.36187142620000   -2.34093599120000    1.44609258770000
C        -3.23764807680000   -2.30804123030000   -0.07689541010000
C        -3.61249557610000   -3.64471735010000   -0.71244858820000
C        -3.60500156670000   -3.60557654290000   -2.24262564180000
C        -2.26225160610000   -3.22752701290000   -2.87160667280000
C        -1.14534580530000   -4.21850111740000   -2.55213248810000
C         0.16991790330000   -3.88374023040000   -3.25751070440000
C         0.84603859220000   -2.63887036620000   -2.69376658500000
C        -1.43595006420000    2.93270810150000    1.90855207680000
C        -1.54834461370000    3.54269116060000    3.22506606120000
C        -2.51887579170000    3.39053494620000    4.11952502300000
C        -0.45250523350000    3.43620971370000    1.05562044840000
C        -0.23746082550000    2.96407048200000   -0.22954657570000
O         0.72837815930000    3.45007449470000   -1.06280845100000
C         1.82579004830000    4.16024737500000   -0.52790921160000
C         2.73813289330000    3.32641267450000    0.37745178760000
C         3.59779783970000    2.31358585880000   -0.38134446980000
C         2.81331597420000    1.18493179970000   -1.05301171560000
C         2.08177554850000    0.24516221160000   -0.09312548460000
C         2.98146323390000   -0.54266288590000    0.86050800040000
C         3.95195791390000   -1.48042456930000    0.14561000830000
C         4.70706468740000   -2.37408615080000    1.12655996940000
C         5.68788482690000   -3.30503369660000    0.41781617160000
C         6.43648948860000   -4.19693405630000    1.40052941360000
H        -0.36189690680000    1.29646582940000   -4.04386767480000
H         0.11472025400000    2.79553912160000   -3.10449518670000
H        -1.45116293390000    0.36743753280000   -2.11805207760000
H        -2.61801847020000    0.58886457030000   -0.22710360080000
H        -4.23658259400000    0.15761640470000    0.96574838770000
H        -4.60839245380000    0.03458332390000    2.69010908130000
H        -2.66571017270000   -1.24454236660000    3.17241331710000
H        -1.87326961870000   -0.80018853640000    1.66570876150000
H        -4.40464196700000   -2.49855678590000    1.73107078660000
H        -2.78598500060000   -3.18996836200000    1.82129235620000
H        -2.20583593070000   -2.06082692000000   -0.33289101690000
H        -3.88690271680000   -1.53265247180000   -0.48971487820000
H        -4.61650697520000   -3.92390025760000   -0.38227547160000
H        -2.92930604980000   -4.41870490570000   -0.35882544290000
H        -4.35718231970000   -2.88616041270000   -2.57739104610000
H        -3.90383112000000   -4.58877992080000   -2.61484968720000
H        -1.97561101950000   -2.22864657900000   -2.54315413450000
H        -2.39374071380000   -3.18679146650000   -3.95617536250000
H        -1.46759189830000   -5.21739160940000   -2.85738780750000
H        -0.96627685690000   -4.24188101030000   -1.47585384530000
H        -0.01457103330000   -3.74710801840000   -4.32551486030000
H         0.85042789970000   -4.73172970330000   -3.14667502580000
H         0.24579287020000   -1.74920803670000   -2.86646043510000
H         1.81423992320000   -2.48555321160000   -3.16551624780000
H         1.00110199600000   -2.74829560990000   -1.62187997330000
H        -0.73018947860000    4.21439401160000    3.46264206570000
H        -3.36867372440000    2.75828666290000    3.94696961720000
H        -2.48384276860000    3.91180684550000    5.06224064450000
H         0.15558844140000    4.24456731920000    1.43251213100000
H         1.48115095080000    5.05584899380000    0.00651006290000
H         2.38222807630000    4.49016777210000   -1.41042678290000
H         2.13262373070000    2.81142481440000    1.12420012020000
H         3.39885542960000    4.01924606500000    0.90411100550000
H         4.32354940800000    1.88807238940000    0.31470308480000
H         4.16206733010000    2.84600597210000   -1.15189995440000
H         3.50566989450000    0.60118157030000   -1.66276448800000
H         2.07422406900000    1.61824158660000   -1.72717559890000
H         1.50778292820000   -0.46144134800000   -0.69702740640000
H         1.36180221270000    0.81564493310000    0.49725740630000
H         2.34045545520000   -1.13713812840000    1.51756471990000
H         3.54326120010000    0.14376823120000    1.49689687640000
H         4.67464800530000   -0.89744064760000   -0.42787515640000
H         3.39679511790000   -2.10535636200000   -0.55804064880000
H         3.99175184100000   -2.97226390700000    1.69658148330000
H         5.25329958470000   -1.74931368750000    1.83767574260000
H         6.40588553770000   -2.70790716650000   -0.14928839090000
H         5.14175114230000   -3.92805460530000   -0.29441505080000
H         7.00332141130000   -3.59416864130000    2.10699000400000
H         7.12846364480000   -4.85129597600000    0.87527416250000
H         5.73904116380000   -4.81481019640000    1.96222312060000
$end

$rem
BASIS = 6-31G*
GUI = 2
METHOD = B3LYP
PRINT_ORBITALS false
MOLDEN_FORMAT false
--------------------------------------------------------------
 ----------------------------------------------------------------
             Standard Nuclear Orientation (Angstroms)
    I     Atom           X                Y                Z
 ----------------------------------------------------------------
    1      C       0.6812334722     0.4085656227     3.5744141348
    2      C       1.1346071028    -0.0152321400     2.4001343805
    3      C       1.8070310867     0.7624533103     1.3696880288
    4      C       2.5161224206     0.0568275718     0.3987391939
    5      C       3.2081174966     0.6633771986    -0.6377372110
    6      O       3.9040861854    -0.0302901146    -1.5865593749
    7      C       3.7168388805    -1.4251655221    -1.7056850432
    8      C       2.3392892566    -1.7828223409    -2.2747480330
    9      C       1.9787412965    -3.2570073113    -2.0875742423
   10      C       1.5702340323    -3.5866884481    -0.6521516180
   11      C       1.0573530275    -5.0182838133    -0.5156623346
   12      C       0.7474453225    -5.4101210156     0.9312138866
   13      C      -0.3053085447    -4.5416461989     1.6232954056
   14      C      -1.6760487319    -4.6054125202     0.9535363491
   15      C      -2.7444865515    -3.8074126236     1.7026549600
   16      C      -2.5442555194    -2.2997905761     1.5948083438
   17      C       3.1983043673     2.0700184630    -0.7201583566
   18      C       3.8849199733     2.8515809898    -1.7378223309
   19      C       4.8014069313     2.4412040913    -2.6077542664
   20      C       2.4611295596     2.7739903086     0.2333440894
   21      C       1.7670443870     2.1661815603     1.2675723670
   22      O       1.0396216423     2.8521416028     2.1969190021
   23      C       0.6082011752     4.1682105444     1.9201257726
   24      C      -0.3876578903     4.2767343694     0.7608951594
   25      C      -1.7843575085     3.7519172410     1.0991419588
   26      C      -1.8575287955     2.2447340467     1.3510416477
   27      C      -1.5318762303     1.3696861679     0.1394553048
   28      C      -2.4832784914     1.5206064685    -1.0486439923
   29      C      -3.9239658603     1.1284946986    -0.7277011581
   30      C      -4.8041630419     1.1236907945    -1.9752226737
   31      C      -6.2486040768     0.7443778497    -1.6578884074
   32      C      -7.1221219897     0.7378204505    -2.9063049899
   33      H       0.2027632200    -0.2710172135     4.2606513218
   34      H       0.7792427919     1.4290150749     3.8940904860
   35      H       1.0353601230    -1.0676642991     2.1557770770
   36      H       2.5184505161    -1.0173787568     0.4871901997
   37      H       3.8920691964    -1.9239262534    -0.7456780120
   38      H       4.5022270882    -1.7465526193    -2.3958432926
   39      H       2.3318157449    -1.5302193974    -3.3367518382
   40      H       1.5843078170    -1.1612117924    -1.7873531610
   41      H       2.8233737004    -3.8818369811    -2.3869256669
   42      H       1.1421270423    -3.4956465025    -2.7481830026
   43      H       0.7870498740    -2.8898038865    -0.3484092063
   44      H       2.4218007625    -3.4570199869     0.0195621766
   45      H       1.8166686344    -5.7040031670    -0.9006623988
   46      H       0.1658096327    -5.1444534939    -1.1321731463
   47      H       1.6721002362    -5.3598186713     1.5124937626
   48      H       0.4095364609    -6.4494574888     0.9428766894
   49      H       0.0415409577    -3.5090423380     1.6583768293
   50      H      -0.4047035933    -4.8854323164     2.6563344865
   51      H      -1.9884367117    -5.6513947248     0.8974957621
   52      H      -1.6089522991    -4.2238524384    -0.0667077380
   53      H      -2.7469109064    -4.1010997685     2.7548333619
   54      H      -3.7233681342    -4.0606509397     1.2877745538
   55      H      -1.6235986568    -1.9864821727     2.0804480651
   56      H      -3.3687387971    -1.7719481761     2.0692316116
   57      H      -2.5025479536    -2.0001345593     0.5491381271
   58      H       3.6025392796     3.8990704179    -1.7434743156
   59      H       5.1441698949     1.4250741223    -2.6485368983
   60      H       5.2407601032     3.1312995144    -3.3094675598
   61      H       2.4531059828     3.8501748254     0.1495002804
   62      H       1.4694058455     4.8257294522     1.7399099855
   63      H       0.1296880884     4.4902460234     2.8499786572
   64      H       0.0073856187     3.7447450240    -0.1053697404
   65      H      -0.4672632418     5.3336356138     0.4952543184
   66      H      -2.4589936439     4.0175086471     0.2826944470
   67      H      -2.1412137719     4.2679271514     1.9946945085
   68      H      -2.8624537557     2.0038749979     1.7032198236
   69      H      -1.1631649509     1.9839095395     2.1500038402
   70      H      -1.5477195513     0.3288006421     0.4707557138
   71      H      -0.5149677965     1.5793783523    -0.1986135088
   72      H      -2.1187548290     0.8816568033    -1.8578912622
   73      H      -2.4608419684     2.5479764150    -1.4171586193
   74      H      -4.3445345513     1.8272668542    -0.0025281401
   75      H      -3.9344224386     0.1341730333    -0.2748382553
   76      H      -4.3982892281     0.4161786824    -2.7026198699
   77      H      -4.7847973737     2.1149948811    -2.4349399951
   78      H      -6.6566340106     1.4533785496    -0.9336493039
   79      H      -6.2673863163    -0.2458107804    -1.1965164614
   80      H      -7.1321919921     1.7220886664    -3.3697980472
   81      H      -8.1452721352     0.4650762238    -2.6579399355
   82      H      -6.7430019639     0.0225318852    -3.6331716800
 ----------------------------------------------------------------
 Molecular Point Group                 C1    NOp =  1
 Largest Abelian Subgroup              C1    NOp =  1
 Nuclear Repulsion Energy =        3425.01140257 hartrees
 There are      123 alpha and      123 beta electrons
 Requested basis set is 6-31G(d)
 There are 228 shells and 580 basis functions

 Total QAlloc Memory Limit   4000 MB
 Mega-Array Size       188 MB
 MEM_STATIC part       192 MB
 A cutoff of  1.0D-08 yielded   9510 shell pairs
 There are     63507 function pairs
 Smallest overlap matrix eigenvalue = 2.75E-04

 Scale SEOQF with 1.000000e-02/1.000000e-02/1.000000e-01

 Standard Electronic Orientation quadrupole field applied
 Nucleus-field energy     =    -0.0000000569 hartrees
 Guess from superposition of atomic densities
 Warning:  Energy on first SCF cycle will be non-variational
 SAD guess density has 246.000001 electrons

 -----------------------------------------------------------------------
  General SCF calculation program by
  Eric Jon Sundstrom, Paul Horn, Yuezhi Mao, Dmitri Zuev, Alec White,
  David Stuck, Shaama M.S., Shane Yost, Joonho Lee, David Small,
  Daniel Levine, Susi Lehtola, Hugh Burton, Evgeny Epifanovsky,
  Bang C. Huynh
 -----------------------------------------------------------------------
 Exchange:     0.2000 Hartree-Fock + 0.0800 Slater + 0.7200 B88
 Correlation:  0.1900 VWN1RPA + 0.8100 LYP
 Using SG-1 standard quadrature grid
 A restricted SCF calculation will be
 performed using DIIS
 SCF converges when DIIS error is below 1.0e-05
 ---------------------------------------
  Cycle       Energy         DIIS error
 ---------------------------------------
    1   -1330.1141036343      3.28e-02  
    2   -1323.0816672491      3.73e-03  
    3   -1323.0050854948      4.00e-03  
    4   -1323.7114473192      3.73e-04  
    5   -1323.7156552742      2.04e-04  
    6   -1323.7172158065      7.88e-05  
    7   -1323.7174574985      2.12e-05  
    8   -1323.7174748933      6.57e-06  Convergence criterion met
 ---------------------------------------
 SCF time:   CPU 264.28s  wall 267.00s 
 SCF   energy in the final basis set =    -1323.7174748933
 Total energy in the final basis set =    -1323.7174748933
 
 --------------------------------------------------------------
 
                    Orbital Energies (a.u.)
 --------------------------------------------------------------
 
 Alpha MOs
 -- Occupied --
-19.1719 -19.1706 -10.2395 -10.2384 -10.2378 -10.2372 -10.1912 -10.1905
-10.1832 -10.1830 -10.1820 -10.1812 -10.1809 -10.1805 -10.1793 -10.1793
-10.1759 -10.1748 -10.1738 -10.1729 -10.1725 -10.1715 -10.1702 -10.1680
-10.1674 -10.1659 -10.1655 -10.1647 -10.1643 -10.1643 -10.1594 -10.1577
 -1.0631  -1.0622  -0.8595  -0.8201  -0.8097  -0.8054  -0.7985  -0.7923
 -0.7725  -0.7659  -0.7589  -0.7472  -0.7319  -0.7243  -0.7109  -0.6962
 -0.6831  -0.6630  -0.6484  -0.6310  -0.6272  -0.6190  -0.5990  -0.5892
 -0.5859  -0.5798  -0.5710  -0.5647  -0.5517  -0.5484  -0.5330  -0.5118
 -0.5083  -0.5049  -0.4809  -0.4794  -0.4739  -0.4703  -0.4635  -0.4615
 -0.4490  -0.4488  -0.4465  -0.4397  -0.4377  -0.4344  -0.4310  -0.4274
 -0.4212  -0.4184  -0.4089  -0.4065  -0.4035  -0.3969  -0.3962  -0.3908
 -0.3888  -0.3851  -0.3828  -0.3774  -0.3737  -0.3727  -0.3656  -0.3631
 -0.3596  -0.3547  -0.3533  -0.3510  -0.3468  -0.3417  -0.3394  -0.3335
 -0.3318  -0.3299  -0.3254  -0.3239  -0.3219  -0.3189  -0.3112  -0.3094
 -0.3077  -0.3041  -0.3023  -0.3002  -0.2987  -0.2967  -0.2905  -0.2828
 -0.2524  -0.2207  -0.1887
 -- Virtual --
 -0.0348   0.0184   0.0346   0.0581   0.0795   0.0826   0.0893   0.0931
  0.0973   0.1004   0.1039   0.1050   0.1080   0.1135   0.1182   0.1207
  0.1244   0.1299   0.1327   0.1362   0.1375   0.1463   0.1487   0.1535
  0.1555   0.1616   0.1644   0.1659   0.1668   0.1704   0.1731   0.1760
  0.1788   0.1809   0.1822   0.1862   0.1867   0.1903   0.1908   0.1946
  0.1979   0.2000   0.2010   0.2033   0.2055   0.2073   0.2094   0.2163
  0.2168   0.2199   0.2255   0.2277   0.2303   0.2316   0.2379   0.2413
  0.2448   0.2473   0.2514   0.2530   0.2560   0.2593   0.2601   0.2644
  0.2672   0.2715   0.2735   0.2784   0.2805   0.2835   0.2910   0.2949
  0.2965   0.3049   0.3057   0.3098   0.3231   0.3341   0.3396   0.3658
  0.3750   0.3848   0.3957   0.4090   0.4203   0.4772   0.4910   0.4933
  0.4994   0.5034   0.5055   0.5134   0.5149   0.5190   0.5200   0.5246
  0.5276   0.5301   0.5375   0.5391   0.5438   0.5518   0.5554   0.5578
  0.5600   0.5622   0.5663   0.5753   0.5776   0.5827   0.5853   0.5887
  0.5946   0.5978   0.6000   0.6050   0.6071   0.6105   0.6226   0.6243
  0.6338   0.6357   0.6434   0.6479   0.6522   0.6555   0.6653   0.6686
  0.6706   0.6737   0.6766   0.6769   0.6812   0.6909   0.6926   0.6965
  0.6995   0.7047   0.7088   0.7145   0.7169   0.7196   0.7232   0.7337
  0.7433   0.7445   0.7453   0.7568   0.7690   0.7800   0.7901   0.7968
  0.8089   0.8194   0.8220   0.8265   0.8296   0.8340   0.8420   0.8461
  0.8513   0.8524   0.8573   0.8624   0.8692   0.8694   0.8714   0.8735
  0.8796   0.8805   0.8843   0.8850   0.8859   0.8927   0.8970   0.9021
  0.9051   0.9101   0.9120   0.9159   0.9178   0.9231   0.9281   0.9297
  0.9362   0.9394   0.9429   0.9450   0.9495   0.9520   0.9533   0.9551
  0.9592   0.9613   0.9663   0.9710   0.9729   0.9766   0.9800   0.9826
  0.9838   0.9898   0.9947   1.0017   1.0118   1.0207   1.0220   1.0249
  1.0295   1.0352   1.0399   1.0449   1.0482   1.0518   1.0592   1.0749
  1.0864   1.0951   1.0990   1.1068   1.1116   1.1180   1.1324   1.1383
  1.1420   1.1515   1.1581   1.1750   1.1861   1.1956   1.2079   1.2144
  1.2229   1.2302   1.2404   1.2491   1.2640   1.2797   1.2820   1.3052
  1.3271   1.3305   1.3395   1.3481   1.3584   1.3600   1.3777   1.3920
  1.4005   1.4135   1.4221   1.4243   1.4323   1.4368   1.4436   1.4616
  1.4650   1.4762   1.4899   1.5012   1.5031   1.5164   1.5192   1.5299
  1.5385   1.5419   1.5453   1.5807   1.5909   1.5932   1.6094   1.6110
  1.6314   1.6432   1.6539   1.6590   1.6732   1.6890   1.6957   1.6986
  1.7106   1.7229   1.7328   1.7388   1.7577   1.7606   1.7754   1.7874
  1.7944   1.8022   1.8119   1.8148   1.8320   1.8330   1.8432   1.8531
  1.8604   1.8641   1.8736   1.8802   1.8833   1.8911   1.8980   1.9049
  1.9135   1.9165   1.9274   1.9312   1.9364   1.9386   1.9468   1.9535
  1.9581   1.9602   1.9651   1.9664   1.9764   1.9853   1.9942   1.9984
  2.0023   2.0094   2.0148   2.0223   2.0243   2.0285   2.0317   2.0338
  2.0445   2.0467   2.0533   2.0668   2.0714   2.0770   2.0842   2.0984
  2.1016   2.1090   2.1166   2.1307   2.1449   2.1532   2.1606   2.1738
  2.1788   2.1905   2.2024   2.2103   2.2219   2.2294   2.2402   2.2490
  2.2551   2.2566   2.2657   2.2851   2.2893   2.2905   2.2974   2.3135
  2.3271   2.3313   2.3353   2.3445   2.3506   2.3690   2.3709   2.3771
  2.3842   2.3866   2.3947   2.4141   2.4183   2.4284   2.4323   2.4356
  2.4376   2.4393   2.4539   2.4569   2.4612   2.4665   2.4853   2.4880
  2.4959   2.5020   2.5147   2.5655   2.5685   2.5777   2.5836   2.5902
  2.6096   2.6173   2.6191   2.6415   2.6441   2.6481   2.6651   2.6797
  2.6881   2.6961   2.7064   2.7088   2.7172   2.7268   2.7380   2.7495
  2.7554   2.7691   2.7841   2.8122   2.8148   2.8492   2.8663   2.8743
  2.9077   2.9257   2.9771   2.9937   3.0806   3.0985   3.1711   3.3605
  3.4930   4.0873   4.1142   4.1211   4.1477   4.1530   4.1569   4.1688
  4.1880   4.2013   4.2275   4.2328   4.2619   4.2824   4.2999   4.3248
  4.3382   4.3766   4.3860   4.4351   4.4390   4.4761   4.4882   4.5022
  4.5252   4.5333   4.5527   4.5730   4.5926   4.6141   4.6290   4.6479
  4.9447
 --------------------------------------------------------------
 
          Ground-State Mulliken Net Atomic Charges

     Atom                 Charge (a.u.)
  ----------------------------------------
      1 C                    -0.352114
      2 C                    -0.129846
      3 C                     0.152008
      4 C                    -0.296344
      5 C                     0.323888
      6 O                    -0.536179
      7 C                    -0.041441
      8 C                    -0.289499
      9 C                    -0.265361
     10 C                    -0.266524
     11 C                    -0.258458
     12 C                    -0.257737
     13 C                    -0.269125
     14 C                    -0.249563
     15 C                    -0.253456
     16 C                    -0.454600
     17 C                     0.151722
     18 C                    -0.119409
     19 C                    -0.352162
     20 C                    -0.293346
     21 C                     0.330325
     22 O                    -0.535851
     23 C                    -0.043267
     24 C                    -0.291105
     25 C                    -0.262421
     26 C                    -0.274832
     27 C                    -0.278783
     28 C                    -0.255995
     29 C                    -0.259565
     30 C                    -0.245150
     31 C                    -0.248101
     32 C                    -0.440490
     33 H                     0.133217
     34 H                     0.169332
     35 H                     0.131297
     36 H                     0.139803
     37 H                     0.140701
     38 H                     0.151591
     39 H                     0.144825
     40 H                     0.158252
     41 H                     0.130850
     42 H                     0.137106
     43 H                     0.142647
     44 H                     0.131857
     45 H                     0.128596
     46 H                     0.135530
     47 H                     0.125693
     48 H                     0.127673
     49 H                     0.143715
     50 H                     0.128589
     51 H                     0.126936
     52 H                     0.129932
     53 H                     0.129863
     54 H                     0.129169
     55 H                     0.153983
     56 H                     0.146332
     57 H                     0.146837
     58 H                     0.119167
     59 H                     0.168860
     60 H                     0.130544
     61 H                     0.133221
     62 H                     0.138257
     63 H                     0.149480
     64 H                     0.161351
     65 H                     0.133053
     66 H                     0.132706
     67 H                     0.123530
     68 H                     0.124883
     69 H                     0.164673
     70 H                     0.138252
     71 H                     0.139438
     72 H                     0.122668
     73 H                     0.127036
     74 H                     0.131894
     75 H                     0.130701
     76 H                     0.124526
     77 H                     0.125399
     78 H                     0.128958
     79 H                     0.128796
     80 H                     0.140837
     81 H                     0.139708
     82 H                     0.140516
  ----------------------------------------
  Sum of atomic charges =     0.000000

 -----------------------------------------------------------------
                    Cartesian Multipole Moments
 -----------------------------------------------------------------
    Charge (ESU x 10^10)
                 0.0000
    Dipole Moment (Debye)
         X      -0.6180      Y      -0.6543      Z      -0.3612
       Tot       0.9698
    Quadrupole Moments (Debye-Ang)
        XX    -208.8764     XY      -5.2727     YY    -186.2150
        XZ      -4.3394     YZ       3.3442     ZZ    -203.2784
    Octopole Moments (Debye-Ang^2)
       XXX       2.2362    XXY     -26.0732    XYY      18.3908
       YYY      65.7141    XXZ      -6.7634    XYZ       3.1439
       YYZ       8.9600    XZZ       6.1865    YZZ      -3.3671
       ZZZ       5.2456
    Hexadecapole Moments (Debye-Ang^3)
      XXXX  -11733.0412   XXXY    -136.3896   XXYY   -3539.9710
      XYYY      51.0623   YYYY   -9795.6947   XXXZ    -174.5536
      XXYZ      26.5974   XYYZ     -38.7967   YYYZ      82.0896
      XXZZ   -2580.7228   XYZZ      -6.8924   YYZZ   -2271.4098
      XZZZ    -108.6361   YZZZ      54.6033   ZZZZ   -3797.6018
 -----------------------------------------------------------------
Archival summary:
1\1\nia1977.scinet.local\SP\ProcedureUnspecified\6-31G*\23050\rhickman\MonFeb717:00:162022MonFeb717:00:162022\0\\#,ProcedureUnspecified,6-31G*,\\0,1\O\C,1,1.36505\C,2,1.38593,1,123.679\H,3,1.07948,2,119.436,1,1.09306,0\C,3,1.39577,2,123.579,1,-179.634,0\C,2,1.40801,1,117.823,3,-179.829,0\C,6,1.39408,2,117.94,1,178.119,0\H,7,1.07784,6,116.641,2,-178.95,0\C,7,1.38602,6,123.592,2,1.66154,0\O,9,1.36595,7,123.477,6,179.883,0\C,1,1.41237,2,119.842,3,20.0976,0\H,11,1.09422,1,103.962,2,-175.71,0\H,11,1.0984,1,110.515,2,-60.2524,0\C,10,1.41242,9,119.509,7,13.1078,0\H,14,1.09382,10,104.371,9,-170.336,0\H,14,1.09594,10,110.755,9,-54.6848,0\C,5,1.45531,3,117.131,2,-179.362,0\H,17,1.0849,5,113.539,3,-10.2089,0\C,17,1.32859,5,128.13,3,168.438,0\H,19,1.07316,17,122.526,5,0.220107,0\H,19,1.07781,17,120.646,5,-179.46,0\C,6,1.4556,2,124.811,1,-0.365214,0\H,22,1.08498,6,113.645,2,162.979,0\C,22,1.32819,6,127.814,2,-18.8924,0\H,24,1.07383,22,122.362,6,-0.29304,0\H,24,1.07782,22,120.881,6,-179.565,0\C,11,1.5321,1,114.383,2,64.6236,0\H,27,1.09064,11,109.328,1,-50.5472,0\H,27,1.09268,11,107.446,1,-167.236,0\C,27,1.52991,11,113.692,1,72.5577,0\H,30,1.09191,27,108.379,11,170.824,0\H,30,1.09345,27,108.49,11,54.7222,0\C,30,1.52984,27,114.71,11,-66.5342,0\H,33,1.09019,30,109.021,27,56.5334,0\H,33,1.09175,30,108.33,27,172.972,0\C,33,1.52961,30,115.024,27,-64.8323,0\H,36,1.09195,33,109.49,30,60.0981,0\H,36,1.09245,33,107.564,30,175.89,0\C,36,1.52955,33,115.239,30,-62.716,0\H,39,1.09169,36,110.016,33,60.9602,0\H,39,1.09362,36,108.047,33,177.504,0\C,39,1.5272,36,113.466,33,-61.9471,0\H,42,1.09135,39,109.803,36,66.2083,0\H,42,1.09264,39,109.255,36,-51.6677,0\C,42,1.52679,39,111.897,36,-172.829,0\H,45,1.09289,42,109.307,39,-58.21,0\H,45,1.09289,42,109.376,39,59.2357,0\C,45,1.52676,42,112.109,39,-179.49,0\H,48,1.09256,45,109.22,42,-58.5701,0\H,48,1.09256,45,109.262,42,58.8413,0\C,48,1.52369,45,111.91,42,-179.867,0\H,51,1.08762,48,110.689,45,179.978,0\H,51,1.08798,48,110.515,45,59.8856,0\H,51,1.08798,48,110.515,45,-59.9345,0\C,14,1.53277,10,112.389,9,70.4592,0\H,55,1.09166,14,108.261,10,72.44,0\H,55,1.09268,14,108.822,10,-43.8886,0\C,55,1.52913,14,113.043,10,-165.552,0\H,58,1.09237,55,108.492,14,-164.183,0\H,58,1.09244,55,109.607,14,-47.0164,0\C,58,1.5284,55,112.702,14,75.7339,0\H,61,1.09146,58,108.386,55,52.4098,0\H,61,1.09233,58,110.094,55,-65.7689,0\C,61,1.52681,58,112.086,55,173.293,0\H,64,1.09126,61,109.411,58,-61.8554,0\H,64,1.09316,61,108.866,58,55.0198,0\C,64,1.5307,61,113.112,58,175.379,0\H,67,1.09295,64,108.428,61,-178.759,0\H,67,1.09335,64,108.635,61,-62.2992,0\C,67,1.5302,64,114.931,61,59.2781,0\H,70,1.08987,67,109.472,64,-60.8033,0\H,70,1.09327,67,108.146,64,-177.34,0\C,70,1.52695,67,113.298,64,62.1655,0\H,73,1.09132,70,109.893,67,-62.3146,0\H,73,1.09307,70,108.603,67,55.2756,0\C,73,1.52956,70,112.983,67,176.268,0\H,76,1.0924,73,109.452,70,-51.5929,0\H,76,1.09292,73,108.593,70,-168.722,0\C,76,1.52468,73,112.924,70,70.7002,0\H,79,1.08702,76,111.385,73,-64.8509,0\H,79,1.08787,76,110.451,73,175.272,0\H,79,1.08856,76,110.193,73,55.6246,0\\\@

 Total job time:  267.31s(wall), 265.06s(cpu) 
 Mon Feb  7 17:00:16 2022

        *************************************************************
        *                                                           *
        *  Thank you very much for using Q-Chem.  Have a nice day.  *
        *                                                           *
        *************************************************************


