26
 energy: -36.725166719009 gnorm: 0.000142777561 xtb: 6.4.1 (23d549d)
C         3.69191520040000    1.44787239780000   -0.16172848980000
C         3.05965224400000    0.32698179500000    0.16359722220000
C         1.61790483440000    0.12484538060000    0.09893195840000
C         0.72185086020000    1.19104338500000    0.19615464030000
C        -0.65009836490000    1.00683259910000    0.12274446830000
C        -1.53225908120000    2.16396551450000    0.18907710400000
C        -2.71231905670000    2.29834492810000   -0.40610097480000
C        -1.09128967180000   -0.33339949430000    0.01356208770000
N        -2.41698048270000   -0.66818425600000    0.00050543500000
N        -2.80200499890000   -2.01416350440000    0.17976837590000
N        -0.24333146020000   -1.35489115320000   -0.07853485270000
C         1.06441868050000   -1.15343839210000   -0.05788421670000
C         1.90573910180000   -2.38308146640000   -0.21417511280000
H         4.76248022670000    1.53217607560000   -0.08511513210000
H         3.17427195280000    2.31743980890000   -0.53049996070000
H         3.63768070790000   -0.52503455740000    0.49637799170000
H         1.10495778710000    2.19233029800000    0.33300717010000
H        -1.12989526930000    2.99794481480000    0.75331324830000
H        -3.13245833960000    1.53718395530000   -1.04060878860000
H        -3.28005920990000    3.20895901660000   -0.31355269450000
H        -3.05332261950000   -0.01361023030000    0.43830970190000
H        -2.06255022130000   -2.49920472950000    0.69163036210000
H        -2.85372049260000   -2.45608167830000   -0.73808010670000
H         1.25962493630000   -3.23497584930000   -0.40670908360000
H         2.47689074210000   -2.57417658630000    0.69383840650000
H         2.60441122580000   -2.26744791830000   -1.04055410840000
