24
 energy: -42.126730845364 gnorm: 0.000024972747 xtb: 6.5.0 (unknown)
C           -1.59745125530000       -2.87196805100000       -0.82214344790000
C           -1.34309620530000       -1.86940792400000        0.00751718440000
C           -0.12427111070000       -1.06565717650000        0.00607522010000
C            1.09642434190000       -1.63293839410000       -0.34941262510000
C            2.28382524630000       -0.93008847570000       -0.28559097380000
C            2.28176154850000        0.38650437590000        0.16591116120000
O            3.38262627600000        1.17512351390000        0.29321909320000
C            4.63556007580000        0.64342415250000       -0.06428648520000
C            1.07089918890000        0.96989762250000        0.52909437070000
C           -0.12530395070000        0.27300022980000        0.43649021290000
C           -1.34957482900000        0.99449441100000        0.79012827650000
C           -2.48574285330000        0.97553704410000        0.11504067400000
F           -2.74571520640000        0.31942759210000       -1.00829494080000
F           -3.56494056480000        1.67423134310000        0.46878070110000
H           -2.50991990300000       -3.43854670690000       -0.75699428560000
H           -0.92018566300000       -3.14821590480000       -1.61242762440000
H           -2.07468274210000       -1.60321385620000        0.76062303010000
H            1.11860676110000       -2.66517783990000       -0.66382127410000
H            3.20049993640000       -1.42015079410000       -0.57296082520000
H            5.35488898470000        1.44143293210000        0.11236089490000
H            4.66480803580000        0.35822962470000       -1.12076451550000
H            4.89672066470000       -0.22143209750000        0.55408410080000
H            1.08058989760000        1.99433525070000        0.86744448190000
H           -1.30975233770000        1.65265941180000        1.64555046850000
