
Running Job 1 of 1 fragments/C014/conf-2/spe_input.inp
qchem fragments/C014/conf-2/spe_input.inp_367356.0 /gpfs/fs0/scratch/a/aspuru/rhickman/descriptor_computation/qchem367356/ 0
/scinet/niagara/software/commercial/qc52/exe/qcprog.exe_s fragments/C014/conf-2/spe_input.inp_367356.0 /gpfs/fs0/scratch/a/aspuru/rhickman/descriptor_computation/qchem367356/
                  Welcome to Q-Chem
     A Quantum Leap Into The Future Of Chemistry


 Q-Chem 5.2, Q-Chem, Inc., Pleasanton, CA (2019)

 License issued to: SRG Alan Aspuru-Guzik, University of Toronto

 Yihan Shao,  Zhengting Gan,  E. Epifanovsky,  A. T. B. Gilbert,  M. Wormit,  
 J. Kussmann,  A. W. Lange,  A. Behn,  Jia Deng,  Xintian Feng,  D. Ghosh,  
 M. Goldey,  P. R. Horn,  L. D. Jacobson,  I. Kaliman,  T. Kus,  A. Landau,  
 Jie Liu,  E. I. Proynov,  R. M. Richard,  R. P. Steele,  E. J. Sundstrom,  
 H. L. Woodcock III,  P. M. Zimmerman,  D. Zuev,  B. Albrecht,  E. Alguire,  
 S. A. Baeppler,  D. Barton,  Z. Benda,  Y. A. Bernard,  E. J. Berquist,  
 K. B. Bravaya,  H. Burton,  D. Casanova,  Chun-Min Chang,  Yunqing Chen,  
 A. Chien,  K. D. Closser,  M. P. Coons,  S. Coriani,  S. Dasgupta,  
 A. L. Dempwolff,  M. Diedenhofen,  Hainam Do,  R. G. Edgar,  Po-Tung Fang,  
 S. Faraji,  S. Fatehi,  Qingguo Feng,  K. D. Fenk,  J. Fosso-Tande,  
 J. Gayvert,  Qinghui Ge,  A. Ghysels,  G. Gidofalvi,  J. Gomes,  
 J. Gonthier,  A. Gunina,  D. Hait,  M. W. D. Hanson-Heine,  
 P. H. P. Harbach,  A. W. Hauser,  M. F. Herbst,  J. E. Herr,  
 E. G. Hohenstein,  Z. C. Holden,  Kerwin Hui,  B. C. Huynh,  T.-C. Jagau,  
 Hyunjun Ji,  B. Kaduk,  K. Khistyaev,  Jaehoon Kim,  P. Klunzinger,  K. Koh,  
 D. Kosenkov,  L. Koulias,  T. Kowalczyk,  C. M. Krauter,  A. Kunitsa,  
 Ka Un Lao,  A. Laurent,  K. V. Lawler,  Joonho Lee,  D. Lefrancois,  
 S. Lehtola,  D. S. Levine,  Yi-Pei Li,  You-Sheng Lin,  Fenglai Liu,  
 E. Livshits,  A. Luenser,  P. Manohar,  E. Mansoor,  S. F. Manzer,  
 Shan-Ping Mao,  Yuezhi Mao,  N. Mardirossian,  A. V. Marenich,  
 T. Markovich,  L. A. Martinez-Martinez,  S. A. Maurer,  N. J. Mayhall,  
 S. C. McKenzie,  J.-M. Mewes,  P. Morgante,  A. F. Morrison,  
 J. W. Mullinax,  K. Nanda,  T. S. Nguyen-Beck,  R. Olivares-Amaya,  
 J. A. Parkhill,  Zheng Pei,  T. M. Perrine,  F. Plasser,  P. Pokhilko,  
 S. Prager,  A. Prociuk,  E. Ramos,  D. R. Rehn,  F. Rob,  M. Scheurer,  
 M. Schneider,  N. Sergueev,  S. M. Sharada,  S. Sharma,  D. W. Small,  
 T. Stauch,  T. Stein,  Yu-Chuan Su,  A. J. W. Thom,  A. Tkatchenko,  
 T. Tsuchimochi,  N. M. Tubman,  L. Vogt,  M. L. Vidal,  O. Vydrov,  
 M. A. Watson,  J. Wenzel,  M. de Wergifosse,  T. A. Wesolowski,  A. White,  
 J. Witte,  A. Yamada,  Jun Yang,  K. Yao,  S. Yeganeh,  S. R. Yost,  
 Zhi-Qiang You,  A. Zech,  Igor Ying Zhang,  Xing Zhang,  Yan Zhao,  
 Ying Zhu,  B. R. Brooks,  G. K. L. Chan,  C. J. Cramer,  M. S. Gordon,  
 W. J. Hehre,  A. Klamt,  M. W. Schmidt,  C. D. Sherrill,  D. G. Truhlar,  
 A. Aspuru-Guzik,  R. Baer,  A. T. Bell,  N. A. Besley,  Jeng-Da Chai,  
 A. E. DePrince, III,  R. A. DiStasio Jr.,  A. Dreuw,  B. D. Dunietz,  
 T. R. Furlani,  Chao-Ping Hsu,  Yousung Jung,  Jing Kong,  D. S. Lambrecht,  
 WanZhen Liang,  C. Ochsenfeld,  V. A. Rassolov,  L. V. Slipchenko,  
 J. E. Subotnik,  T. Van Voorhis,  J. M. Herbert,  A. I. Krylov,  
 P. M. W. Gill,  M. Head-Gordon

 Contributors to earlier versions of Q-Chem not listed above: 
 R. D. Adamson,  B. Austin,  J. Baker,  G. J. O. Beran,  K. Brandhorst,  
 S. T. Brown,  E. F. C. Byrd,  A. K. Chakraborty,  C.-L. Cheng,  
 Siu Hung Chien,  D. M. Chipman,  D. L. Crittenden,  H. Dachsel,  
 R. J. Doerksen,  A. D. Dutoi,  L. Fusti-Molnar,  W. A. Goddard III,  
 A. Golubeva-Zadorozhnaya,  S. R. Gwaltney,  G. Hawkins,  A. Heyden,  
 S. Hirata,  G. Kedziora,  F. J. Keil,  C. Kelley,  Jihan Kim,  R. A. King,  
 R. Z. Khaliullin,  P. P. Korambath,  W. Kurlancheek,  A. M. Lee,  M. S. Lee,  
 S. V. Levchenko,  Ching Yeh Lin,  D. Liotard,  R. C. Lochan,  I. Lotan,  
 P. E. Maslen,  N. Nair,  D. P. O'Neill,  D. Neuhauser,  E. Neuscamman,  
 C. M. Oana,  R. Olson,  B. Peters,  R. Peverati,  P. A. Pieniazek,  
 Y. M. Rhee,  J. Ritchie,  M. A. Rohrdanz,  E. Rosta,  N. J. Russ,  
 H. F. Schaefer III,  N. E. Schultz,  N. Shenvi,  A. C. Simmonett,  A. Sodt,  
 D. Stuck,  K. S. Thanthiriwatte,  V. Vanovschi,  Tao Wang,  A. Warshel,  
 C. F. Williams,  Q. Wu,  X. Xu,  W. Zhang

 Please cite Q-Chem as follows:
 Y. Shao et al., Mol. Phys. 113, 184-215 (2015)
 DOI: 10.1080/00268976.2014.952696

 Q-Chem 5.2.1 for Intel X86 EM64T Linux

 Parts of Q-Chem use Armadillo 8.300.2 (Tropical Shenanigans).
 http://arma.sourceforge.net/

 Q-Chem begins on Tue Feb  8 17:00:24 2022  

Host: 
0

     Scratch files written to /gpfs/fs0/scratch/a/aspuru/rhickman/descriptor_computation/qchem367356//
 Jul1719 |scratch|qcdevops|jenkins|workspace|build_RNUM -1
Processing $rem in /scinet/niagara/software/commercial/qc52/config/preferences:
	 MEM_TOTAL  4000 
NAlpha2: 102
NElect   102
Mult     1

Checking the input file for inconsistencies... 	...done.

--------------------------------------------------------------
User input:
--------------------------------------------------------------
$molecule
0 1
C         2.82155234370000    2.32071405170000   -0.26872227290000
C         2.53252547730000    1.09014809340000    0.13505067450000
C         1.23183119340000    0.42712239240000    0.06287302990000
C         1.19381146620000   -0.97084890940000    0.07831484140000
F         2.34080455050000   -1.66012567110000    0.15305386150000
C        -0.00001984390000   -1.67254510320000    0.00035251960000
F        -0.00004687900000   -3.01126249520000    0.00061841030000
C        -1.19382899740000   -0.97084435160000   -0.07788280380000
F        -2.34083365550000   -1.66013313470000   -0.15235080660000
C        -1.23182487990000    0.42713688190000   -0.06299244900000
C        -2.53252300170000    1.09011663570000   -0.13540247160000
C        -2.82150344140000    2.32099980610000    0.26744343900000
C         0.00001523590000    1.08364729750000   -0.00018997220000
F         0.00005049960000    2.42584202090000   -0.00042656800000
H         3.82363032670000    2.70241821010000   -0.17609107040000
H         2.09864625470000    2.98432262630000   -0.70782816330000
H         3.31885848150000    0.46306803210000    0.53412945590000
H        -3.31892840870000    0.46272116280000   -0.53384190260000
H        -2.09853393840000    2.98500575450000    0.70583896910000
H        -3.82361601740000    2.70258682920000    0.17469386850000
$end

$rem
BASIS = 6-31G*
GUI = 2
METHOD = B3LYP
PRINT_ORBITALS false
MOLDEN_FORMAT false
--------------------------------------------------------------
 ----------------------------------------------------------------
             Standard Nuclear Orientation (Angstroms)
    I     Atom           X                Y                Z
 ----------------------------------------------------------------
    1      C       2.8193321288    -2.2422516725     0.2895784612
    2      C       2.5334292234    -1.0115832368    -0.1161017459
    3      C       1.2322559116    -0.3485114568    -0.0536346347
    4      C       1.1944185302     1.0494650145    -0.0690563106
    5      F       2.3419766232     1.7387035476    -0.1349515193
    6      C       0.0000630763     1.7512009246     0.0000134472
    7      F       0.0000995957     3.0899183424     0.0000420554
    8      C      -1.1943368023     1.0495398636     0.0690474325
    9      F      -2.3418410445     1.7388669007     0.1349750119
   10      C      -1.2322830442    -0.3484362520     0.0535618963
   11      C      -2.5335229091    -1.0113699441     0.1159694520
   12      C      -2.8194995624    -2.2421507809    -0.2893252397
   13      C      -0.0000326537    -1.0049915273    -0.0000505400
   14      F      -0.0000608825    -2.3471862705    -0.0001091454
   15      H       3.8220656043    -2.6239831971     0.2044579095
   16      H       2.0930894927    -2.9059223005     0.7230487229
   17      H       3.3227920184    -0.3844529396    -0.5090735498
   18      H      -3.3228955943    -0.3840245949     0.5085775270
   19      H      -2.0932599248    -2.9060948014    -0.7223769329
   20      H      -3.8223036143    -2.6237104428    -0.2042546111
 ----------------------------------------------------------------
 Molecular Point Group                 C1    NOp =  1
 Largest Abelian Subgroup              C1    NOp =  1
 Nuclear Repulsion Energy =         886.42695643 hartrees
 There are       51 alpha and       51 beta electrons
 Requested basis set is 6-31G(d)
 There are 68 shells and 222 basis functions

 Total QAlloc Memory Limit   4000 MB
 Mega-Array Size       188 MB
 MEM_STATIC part       192 MB
 A cutoff of  1.0D-08 yielded   1548 shell pairs
 There are     18510 function pairs
 Smallest overlap matrix eigenvalue = 3.14E-04

 Scale SEOQF with 1.000000e-01/1.000000e-01/1.000000e+00

 Standard Electronic Orientation quadrupole field applied
 Nucleus-field energy     =     0.0000000334 hartrees
 Guess from superposition of atomic densities
 Warning:  Energy on first SCF cycle will be non-variational
 SAD guess density has 102.000000 electrons

 -----------------------------------------------------------------------
  General SCF calculation program by
  Eric Jon Sundstrom, Paul Horn, Yuezhi Mao, Dmitri Zuev, Alec White,
  David Stuck, Shaama M.S., Shane Yost, Joonho Lee, David Small,
  Daniel Levine, Susi Lehtola, Hugh Burton, Evgeny Epifanovsky,
  Bang C. Huynh
 -----------------------------------------------------------------------
 Exchange:     0.2000 Hartree-Fock + 0.0800 Slater + 0.7200 B88
 Correlation:  0.1900 VWN1RPA + 0.8100 LYP
 Using SG-1 standard quadrature grid
 A restricted SCF calculation will be
 performed using DIIS
 SCF converges when DIIS error is below 1.0e-05
 ---------------------------------------
  Cycle       Energy         DIIS error
 ---------------------------------------
    1    -786.9770576387      5.22e-02  
    2    -783.7883191574      5.31e-03  
    3    -783.6381412786      7.10e-03  
    4    -783.9455827179      1.43e-03  
    5    -783.9577575515      5.19e-04  
    6    -783.9591807151      1.84e-04  
    7    -783.9593622885      3.40e-05  
    8    -783.9593674885      1.81e-05  
    9    -783.9593691597      3.09e-06  Convergence criterion met
 ---------------------------------------
 SCF time:   CPU 31.10s  wall 31.00s 
 SCF   energy in the final basis set =     -783.9593691597
 Total energy in the final basis set =     -783.9593691597

 Q-Chem warning in module 0, line  198:

 OriOrb: Failure to resolve orbital degeneracies.


 Q-Chem warning in module 0, line  198:

 OriOrb: Failure to resolve orbital degeneracies.

 
 --------------------------------------------------------------
 
                    Orbital Energies (a.u.)
 --------------------------------------------------------------
 
 Alpha MOs
 -- Occupied --
-24.7328 -24.7328 -24.7302 -24.7274 -10.2989 -10.2988 -10.2964 -10.2934
-10.2259 -10.2259 -10.2057 -10.2057 -10.1907 -10.1907  -1.2532  -1.2459
 -1.2443  -1.2332  -0.8994  -0.8269  -0.8009  -0.7529  -0.7481  -0.6637
 -0.6631  -0.6052  -0.5918  -0.5829  -0.5617  -0.5471  -0.5289  -0.5104
 -0.5090  -0.4919  -0.4824  -0.4779  -0.4576  -0.4563  -0.4422  -0.4365
 -0.4332  -0.4166  -0.4097  -0.3782  -0.3741  -0.3669  -0.3479  -0.3255
 -0.2885  -0.2416  -0.2354
 -- Virtual --
 -0.0469  -0.0361   0.0323   0.0391   0.0562   0.1102   0.1208   0.1322
  0.1512   0.1634   0.1636   0.1776   0.2105   0.2169   0.2383   0.2762
  0.2965   0.3279   0.3399   0.3487   0.3545   0.3926   0.4086   0.4531
  0.4720   0.4826   0.5028   0.5045   0.5199   0.5235   0.5344   0.5483
  0.5526   0.5726   0.5867   0.5942   0.6009   0.6113   0.6416   0.6477
  0.6681   0.6704   0.6873   0.7031   0.7098   0.7240   0.8130   0.8237
  0.8392   0.8475   0.8487   0.8686   0.8740   0.8806   0.8857   0.9236
  0.9420   0.9510   0.9884   0.9969   1.0450   1.0575   1.0665   1.1178
  1.1464   1.1673   1.1689   1.1825   1.2095   1.2203   1.2278   1.2357
  1.2527   1.2653   1.2798   1.2884   1.3299   1.3491   1.3694   1.3832
  1.4149   1.4173   1.4350   1.4572   1.4619   1.4693   1.5158   1.5443
  1.5558   1.6079   1.6469   1.6518   1.6542   1.6726   1.7023   1.7329
  1.7688   1.7748   1.7790   1.7843   1.7922   1.8040   1.8051   1.8166
  1.8191   1.8480   1.8758   1.8764   1.8954   1.9096   1.9763   1.9850
  2.0121   2.0264   2.0289   2.0697   2.1165   2.1208   2.1369   2.1477
  2.1661   2.1671   2.2233   2.2375   2.2433   2.2578   2.2961   2.2965
  2.3144   2.3340   2.3742   2.3823   2.4063   2.4115   2.4122   2.4423
  2.4975   2.5438   2.5654   2.6297   2.6399   2.6591   2.6759   2.7090
  2.7295   2.8068   2.8104   2.8805   2.9391   2.9937   3.0810   3.0948
  3.1197   3.1218   3.1655   3.3845   3.4950   4.0184   4.0504   4.0600
  4.1194   4.1305   4.2302   4.2548   4.3850   4.4772   4.6623   4.7721
  5.5809   5.5824   6.4953
 --------------------------------------------------------------
 
          Ground-State Mulliken Net Atomic Charges

     Atom                 Charge (a.u.)
  ----------------------------------------
      1 C                    -0.339290
      2 C                    -0.109478
      3 C                     0.014478
      4 C                     0.247919
      5 F                    -0.269202
      6 C                     0.263517
      7 F                    -0.271180
      8 C                     0.247904
      9 F                    -0.269205
     10 C                     0.014513
     11 C                    -0.109476
     12 C                    -0.339316
     13 C                     0.272903
     14 F                    -0.276266
     15 H                     0.148952
     16 H                     0.160512
     17 H                     0.151624
     18 H                     0.151623
     19 H                     0.160518
     20 H                     0.148948
  ----------------------------------------
  Sum of atomic charges =     0.000000

 -----------------------------------------------------------------
                    Cartesian Multipole Moments
 -----------------------------------------------------------------
    Charge (ESU x 10^10)
                 0.0000
    Dipole Moment (Debye)
         X       0.0001      Y      -1.5822      Z       0.0000
       Tot       1.5822
    Quadrupole Moments (Debye-Ang)
        XX     -71.6020     XY      -0.0009     YY     -78.6702
        XZ      -0.7329     YZ      -0.0009     ZZ     -76.6963
    Octopole Moments (Debye-Ang^2)
       XXX      -0.0008    XXY      -9.1432    XYY       0.0014
       YYY      10.5457    XXZ      -0.0023    XYZ      -2.9727
       YYZ       0.0026    XZZ       0.0031    YZZ      14.3969
       ZZZ      -0.0001
    Hexadecapole Moments (Debye-Ang^3)
      XXXX   -1586.0863   XXXY      -0.0082   XXYY    -484.0118
      XYYY       0.0017   YYYY   -1385.5186   XXXZ     -25.8346
      XXYZ      -0.0001   XYYZ      12.8195   YYYZ      -0.0057
      XXZZ    -312.4213   XYZZ      -0.0032   YYZZ    -243.1486
      XZZZ      -7.8818   YZZZ       0.0024   ZZZZ     -84.8027
 -----------------------------------------------------------------
Archival summary:
1\1\nia2015.scinet.local\SP\ProcedureUnspecified\6-31G*\4106\rhickman\TueFeb817:00:572022TueFeb817:00:572022\0\\#,ProcedureUnspecified,6-31G*,\\0,1\F\C,1,1.34219\C,2,1.39727,1,118.024\C,2,1.39728,1,118.026,3,179.999,0\C,3,1.39857,2,116.5,1,179.217,0\F,5,1.34025,3,119.434,2,-179.261,0\C,5,1.38697,3,121.903,2,1.61635,0\F,7,1.33872,5,120.393,3,179.15,0\C,7,1.38697,5,119.215,3,-0.850217,0\F,9,1.34026,7,118.657,5,-179.979,0\C,4,1.46171,2,125.002,1,0.279868,0\H,11,1.08204,4,113.702,2,158.77,0\C,11,1.32698,4,126.832,2,-23.4813,0\H,13,1.07507,11,123.385,4,0.0602084,0\H,13,1.07631,11,120.362,4,-179.272,0\C,3,1.46172,2,125,1,0.278577,0\H,16,1.08204,3,113.703,2,158.745,0\C,16,1.32697,3,126.829,2,-23.5081,0\H,18,1.07507,16,123.384,3,0.0582929,0\H,18,1.07631,16,120.363,3,-179.272,0\\\@

 Total job time:  32.88s(wall), 32.77s(cpu) 
 Tue Feb  8 17:00:57 2022

        *************************************************************
        *                                                           *
        *  Thank you very much for using Q-Chem.  Have a nice day.  *
        *                                                           *
        *************************************************************


