
Running Job 1 of 1 tidas/B032/conf-4/spe_input.inp
qchem tidas/B032/conf-4/spe_input.inp_147971.0 /home/a/aspuru/seifridm/acdc_laser/descriptor_computation/qchem147971/ 0
/gpfs/fs1/scinet/niagara/software/commercial/qc54/exe/qcprog.exe_s tidas/B032/conf-4/spe_input.inp_147971.0 /home/a/aspuru/seifridm/acdc_laser/descriptor_computation/qchem147971/
                  Welcome to Q-Chem
     A Quantum Leap Into The Future Of Chemistry


 Q-Chem 5.4, Q-Chem, Inc., Pleasanton, CA (2021)

 License issued to: SRG Alan Aspuru-Guzik, University of Toronto

 E. Epifanovsky,  A. T. B. Gilbert,  Xintian Feng,  Joonho Lee,  Yuezhi Mao,  
 N. Mardirossian,  P. Pokhilko,  A. White,  M. Wormit,  M. P. Coons,  
 A. L. Dempwolff,  Zhengting Gan,  D. Hait,  P. R. Horn,  L. D. Jacobson,  
 I. Kaliman,  J. Kussmann,  A. W. Lange,  Ka Un Lao,  D. S. Levine,  Jie Liu,  
 S. C. McKenzie,  A. F. Morrison,  K. Nanda,  F. Plasser,  D. R. Rehn,  
 M. L. Vidal,  Zhi-Qiang You,  Ying Zhu,  B. Alam,  B. Albrecht,  
 A. Aldossary,  E. Alguire,  J. H. Andersen,  D. Barton,  K. Begam,  A. Behn,  
 Y. A. Bernard,  E. J. Berquist,  H. Burton,  A. Carreras,  K. Carter-Fenk,  
 Romit Chakraborty,  A. D. Chien,  K. D. Closser,  V. Cofer-Shabica,  
 S. Dasgupta,  Jia Deng,  M. de Wergifosse,  M. Diedenhofen,  Hainam Do,  
 S. Ehlert,  Po-Tung Fang,  S. Fatehi,  Qingguo Feng,  T. Friedhoff,  
 J. Gayvert,  Qinghui Ge,  G. Gidofalvi,  M. Goldey,  J. Gomes,  
 C. Gonzalez-Espinoza,  S. Gulania,  A. Gunina,  M. W. D. Hanson-Heine,  
 P. H. P. Harbach,  A. W. Hauser,  M. F. Herbst,  M. Hernandez Vera,  
 M. Hodecker,  Z. C. Holden,  S. Houck,  Xunkun Huang,  Kerwin Hui,  
 B. C. Huynh,  M. Ivanov,  Hyunjun Ji,  Hanjie Jiang,  B. Kaduk,  S. Kaehler,  
 K. Khistyaev,  Jaehoon Kim,  P. Klunzinger,  Z. Koczor-Benda,  
 Joong Hoon Koh,  D. Kosenkov,  L. Koulias,  T. Kowalczyk,  C. M. Krauter,  
 K. Kue,  A. Kunitsa,  T. Kus,  A. Landau,  K. V. Lawler,  D. Lefrancois,  
 S. Lehtola,  Rain Li,  Yi-Pei Li,  Jiashu Liang,  M. Liebenthal,  
 Hung-Hsuan Lin,  You-Sheng Lin,  Fenglai Liu,  Kuan-Yu Liu,  
 M. Loipersberger,  A. Luenser,  A. Manjanath,  P. Manohar,  E. Mansoor,  
 S. F. Manzer,  Shan-Ping Mao,  A. V. Marenich,  T. Markovich,  S. Mason,  
 S. A. Maurer,  P. F. McLaughlin,  M. F. S. J. Menger,  J.-M. Mewes,  
 S. A. Mewes,  P. Morgante,  J. W. Mullinax,  K. J. Oosterbaan,  G. Paran,  
 Alexander C. Paul,  Suranjan K. Paul,  F. Pavosevic,  Zheng Pei,  S. Prager,  
 E. I. Proynov,  E. Ramos,  B. Rana,  A. E. Rask,  A. Rettig,  R. M. Richard,  
 F. Rob,  E. Rossomme,  T. Scheele,  M. Scheurer,  M. Schneider,  
 N. Sergueev,  S. M. Sharada,  W. Skomorowski,  D. W. Small,  C. J. Stein,  
 Yu-Chuan Su,  E. J. Sundstrom,  Zhen Tao,  J. Thirman,  T. Tsuchimochi,  
 N. M. Tubman,  S. P. Veccham,  O. Vydrov,  J. Wenzel,  J. Witte,  A. Yamada,  
 Kun Yao,  S. Yeganeh,  S. R. Yost,  A. Zech,  Igor Ying Zhang,  Xing Zhang,  
 Yu Zhang,  D. Zuev,  A. Aspuru-Guzik,  A. T. Bell,  N. A. Besley,  
 K. B. Bravaya,  B. R. Brooks,  D. Casanova,  Jeng-Da Chai,  S. Coriani,  
 C. J. Cramer,  A. E. DePrince, III,  R. A. DiStasio Jr.,  A. Dreuw,  
 B. D. Dunietz,  T. R. Furlani,  W. A. Goddard III,  S. Grimme,  
 S. Hammes-Schiffer,  T. Head-Gordon,  W. J. Hehre,  Chao-Ping Hsu,  
 T.-C. Jagau,  Yousung Jung,  A. Klamt,  Jing Kong,  D. S. Lambrecht,  
 WanZhen Liang,  N. J. Mayhall,  C. W. McCurdy,  J. B. Neaton,  T. Neudecker,  
 C. Ochsenfeld,  J. A. Parkhill,  R. Peverati,  V. A. Rassolov,  Yihan Shao,  
 L. V. Slipchenko,  R. P. Steele,  J. E. Subotnik,  A. J. W. Thom,  
 A. Tkatchenko,  D. G. Truhlar,  T. Van Voorhis,  T. A. Wesolowski,  
 K. B. Whaley,  H. L. Woodcock III,  P. M. Zimmerman,  S. Faraji,  
 P. M. W. Gill,  M. Head-Gordon,  J. M. Herbert,  A. I. Krylov

 Additional authors since Version 5.4.0: 
 Chandrima Chakravarty,  L. Cunha,  R. Kang,  Yongbin Kim,  S. Kotaru,  
 Shaozhi Li,  Xiangyuan Li,  F. Matz,  A. Molle,  V. Parravicini,  
 Haisheng Ren,  Hengyuan Shen,  Yingli Su,  Hung-Yi Tsai,  C. Utku,  
 Fang Wang,  Jeff Yang,  F. Zeller

 Contributors to earlier versions of Q-Chem not listed above: 
 R. D. Adamson,  B. Austin,  R. Baer,  J. Baker,  G. J. O. Beran,  
 K. Brandhorst,  S. T. Brown,  E. F. C. Byrd,  Arup K. Chakraborty,  
 G. K. L. Chan,  Chun-Min Chang,  Yunqing Chen,  C.-L. Cheng,  
 Siu Hung Chien,  D. M. Chipman,  D. L. Crittenden,  H. Dachsel,  
 R. J. Doerksen,  A. D. Dutoi,  R. G. Edgar,  J. Fosso-Tande,  
 L. Fusti-Molnar,  D. Ghosh,  A. Ghysels,  A. Golubeva-Zadorozhnaya,  
 J. Gonthier,  M. S. Gordon,  S. R. Gwaltney,  G. Hawkins,  J. E. Herr,  
 A. Heyden,  S. Hirata,  E. G. Hohenstein,  G. Kedziora,  F. J. Keil,  
 C. Kelley,  Jihan Kim,  R. A. King,  R. Z. Khaliullin,  P. P. Korambath,  
 W. Kurlancheek,  A. Laurent,  A. M. Lee,  M. S. Lee,  S. V. Levchenko,  
 Ching Yeh Lin,  D. Liotard,  E. Livshits,  R. C. Lochan,  I. Lotan,  
 L. A. Martinez-Martinez,  P. E. Maslen,  N. Nair,  D. P. O'Neill,  
 D. Neuhauser,  E. Neuscamman,  C. M. Oana,  R. Olivares-Amaya,  R. Olson,  
 T. M. Perrine,  B. Peters,  P. A. Pieniazek,  A. Prociuk,  Y. M. Rhee,  
 J. Ritchie,  M. A. Rohrdanz,  E. Rosta,  N. J. Russ,  H. F. Schaefer III,  
 M. W. Schmidt,  N. E. Schultz,  S. Sharma,  N. Shenvi,  C. D. Sherrill,  
 A. C. Simmonett,  A. Sodt,  T. Stein,  D. Stuck,  K. S. Thanthiriwatte,  
 V. Vanovschi,  L. Vogt,  Tao Wang,  A. Warshel,  M. A. Watson,  
 C. F. Williams,  Q. Wu,  X. Xu,  Jun Yang,  W. Zhang,  Yan Zhao

   Please cite Q-Chem as follows:
  "Software for the frontiers of quantum chemistry:
   An overview of developments in the Q-Chem 5 package"
   J. Chem. Phys. 155, 084801 (2021)
   https://doi.org/10.1063/5.0055522 (open access)

 Q-Chem 5.4.2 for Intel X86 EM64T Linux

 Parts of Q-Chem use Armadillo 9.900.5 (Nocturnal Misbehaviour).
 http://arma.sourceforge.net/

 Q-Chem begins on Fri Aug 12 13:12:45 2022  

 Host: 
0

     Scratch files written to /home/a/aspuru/seifridm/acdc_laser/descriptor_computation/qchem147971//
 Dec1321 |scratch|qcdevops|jenkins|workspace|build_RNUM 6959   
 Processing $rem in /gpfs/fs1/scinet/niagara/software/commercial/qc54/config/preferences:
 Processing $rem in /home/a/aspuru/seifridm/.qchemrc:

 Checking the input file for inconsistencies... 	...done.

--------------------------------------------------------------
User input:
--------------------------------------------------------------
$molecule
0 1
C           -4.00944849040000        0.83375960670000       -0.66973837920000
C           -2.98134615170000        0.85211254320000        0.16633399230000
C           -1.89854296770000       -0.13473317710000        0.15912280510000
C           -2.20379957030000       -1.46754000810000       -0.10562433960000
C           -1.21771399120000       -2.43470269270000       -0.11572564740000
C            0.09361866030000       -2.06989532710000        0.11043235590000
C            0.42808322270000       -0.73719701580000        0.34706781750000
C            1.85830114380000       -0.44582574590000        0.51623010980000
C            2.53800206400000        0.48084914710000       -0.13383654510000
F            2.06327669010000        1.33740939190000       -1.03090769360000
F            3.84776064920000        0.68419816140000        0.01205599900000
C           -0.56962500400000        0.24041053330000        0.41288851310000
C           -0.23924327720000        1.66190211160000        0.75393081490000
H           -4.78872282030000        1.57520516870000       -0.62397476540000
H           -4.10255304970000        0.09239088020000       -1.44579207570000
H           -2.91637547040000        1.64048639840000        0.90391897500000
H           -3.23253810800000       -1.74564482700000       -0.27737307760000
H           -1.46957810650000       -3.46790520080000       -0.30175468320000
H            0.87694276920000       -2.81319504250000        0.08769113670000
H            2.42612483100000       -1.09468295350000        1.16685156450000
H            0.74603590830000        1.73940579310000        1.20557725050000
H           -0.96314202010000        2.06725204170000        1.45754538160000
H           -0.25757163780000        2.28294611910000       -0.14101774510000
$end

$rem
BASIS = 6-31G*
GUI = 2
METHOD = B3LYP
PRINT_ORBITALS false
MOLDEN_FORMAT false
$end
--------------------------------------------------------------
 ----------------------------------------------------------------
             Standard Nuclear Orientation (Angstroms)
    I     Atom           X                Y                Z
 ----------------------------------------------------------------
    1      C      -3.7956745618    -1.2979219847     0.5902815140
    2      C      -2.7605584088    -1.1729955458    -0.2278115089
    3      C      -1.7960029748    -0.0717579439    -0.1704724212
    4      C      -2.2530768943     1.2088442495     0.1308382938
    5      C      -1.3824373260     2.2795932856     0.1887495007
    6      C      -0.0353516151     2.0718626191    -0.0258040759
    7      C       0.4503397116     0.7937056927    -0.2985062590
    8      C       1.9064812600     0.6703362066    -0.4516994731
    9      C       2.6771563719    -0.1954432960     0.1805916614
   10      F       2.2895420635    -1.1292639777     1.0417132333
   11      F       4.0033799145    -0.2456770572     0.0513218206
   12      C      -0.4298986727    -0.2868616787    -0.4126339611
   13      C       0.0631844927    -1.6501785601    -0.7925501586
   14      H      -4.4857681173    -2.1201260037     0.5074820768
   15      H      -3.9824376920    -0.5979600749     1.3876071975
   16      H      -2.5969862104    -1.9240770972    -0.9886707408
   17      H      -3.3088742757     1.3639672738     0.2932317512
   18      H      -1.7516268800     3.2712594709     0.4028686440
   19      H       0.6588758171     2.8971298294     0.0341174862
   20      H       2.4065710339     1.4001002977    -1.0714593316
   21      H       1.0570882164    -1.6016171171    -1.2290860347
   22      H      -0.6006289924    -2.1104491052    -1.5211886812
   23      H       0.1025210018    -2.2988564256     0.0818834746
 ----------------------------------------------------------------
 Molecular Point Group                 C1    NOp =  1
 Largest Abelian Subgroup              C1    NOp =  1
 Nuclear Repulsion Energy =         752.40969509 hartrees
 There are       47 alpha and       47 beta electrons
 Requested basis set is 6-31G(d)
 There are 72 shells and 215 basis functions

 Total QAlloc Memory Limit   8000 MB
 Mega-Array Size       188 MB
 MEM_STATIC part       192 MB
 A cutoff of  1.0D-08 yielded   1849 shell pairs
 There are     17475 function pairs
 Smallest overlap matrix eigenvalue = 3.31E-04

 Scale SEOQF with 1.000000e-01/1.000000e-01/1.000000e+00

 Standard Electronic Orientation quadrupole field applied
 Nucleus-field energy     =     0.0000000003 hartrees
 Guess from superposition of atomic densities
 Warning:  Energy on first SCF cycle will be non-variational
 SAD guess density has 94.000000 electrons

 -----------------------------------------------------------------------
  General SCF calculation program by
  Eric Jon Sundstrom, Paul Horn, Yuezhi Mao, Dmitri Zuev, Alec White,
  David Stuck, Shaama M.S., Shane Yost, Joonho Lee, David Small,
  Daniel Levine, Susi Lehtola, Hugh Burton, Evgeny Epifanovsky,
  Bang C. Huynh
 -----------------------------------------------------------------------
 Exchange:     0.2000 Hartree-Fock + 0.0800 Slater + 0.7200 B88
 Correlation:  0.1900 VWN1RPA + 0.8100 LYP
 Using SG-1 standard quadrature grid
 A restricted SCF calculation will be
 performed using DIIS
 SCF converges when DIIS error is below 1.0e-05
 ---------------------------------------
  Cycle       Energy         DIIS error
 ---------------------------------------
    1    -627.7000116669      5.41e-02  
    2    -624.5942783215      6.17e-03  
    3    -624.4567975264      7.88e-03  
    4    -624.8092876643      1.51e-03  
    5    -624.8219122123      4.56e-04  
    6    -624.8228121790      2.39e-04  
    7    -624.8231539275      5.15e-05  
    8    -624.8231676820      1.77e-05  
    9    -624.8231697487      5.28e-06  Convergence criterion met
 ---------------------------------------
 SCF time:   CPU 49.18s  wall 50.00s 
 SCF   energy in the final basis set =     -624.8231697487
 Total energy in the final basis set =     -624.8231697487
 
 --------------------------------------------------------------
 
                    Orbital Energies (a.u.)
 --------------------------------------------------------------
 
 Alpha MOs
 -- Occupied --
-24.7386 -24.7322 -10.3537 -10.2003 -10.1993 -10.1970 -10.1922 -10.1890
-10.1863 -10.1846 -10.1836 -10.1795 -10.1771  -1.2811  -1.2209  -0.8719
 -0.8129  -0.7874  -0.7626  -0.7243  -0.6871  -0.6404  -0.6208  -0.5892
 -0.5733  -0.5540  -0.5203  -0.5151  -0.5005  -0.4741  -0.4536  -0.4418
 -0.4393  -0.4325  -0.4304  -0.4141  -0.4082  -0.4056  -0.3891  -0.3743
 -0.3585  -0.3426  -0.3340  -0.2963  -0.2713  -0.2321  -0.2238
 -- Virtual --
 -0.0258  -0.0083   0.0373   0.0547   0.1007   0.1036   0.1249   0.1323
  0.1433   0.1527   0.1604   0.1765   0.1820   0.1920   0.1978   0.2064
  0.2472   0.2516   0.2960   0.3069   0.3138   0.3536   0.3662   0.3854
  0.4004   0.4223   0.4774   0.4921   0.5045   0.5109   0.5274   0.5331
  0.5460   0.5484   0.5595   0.5634   0.5816   0.5911   0.6032   0.6120
  0.6176   0.6278   0.6443   0.6603   0.6614   0.6793   0.6990   0.7067
  0.7352   0.7582   0.7630   0.7887   0.8296   0.8339   0.8404   0.8508
  0.8665   0.8807   0.8915   0.8989   0.9265   0.9321   0.9478   0.9526
  0.9717   0.9806   0.9945   1.0001   1.0252   1.0651   1.1009   1.1196
  1.1277   1.1558   1.1744   1.1938   1.2033   1.2194   1.2379   1.2587
  1.2893   1.3028   1.3150   1.3512   1.3845   1.4076   1.4212   1.4425
  1.4563   1.4759   1.4833   1.4956   1.5281   1.5423   1.5889   1.6118
  1.6803   1.7003   1.7276   1.7678   1.7734   1.7899   1.8191   1.8305
  1.8337   1.8560   1.8689   1.9065   1.9161   1.9349   1.9589   1.9749
  1.9896   1.9901   2.0045   2.0133   2.0291   2.0662   2.0811   2.1233
  2.1433   2.1789   2.1913   2.1978   2.2265   2.2395   2.2588   2.2779
  2.3068   2.3106   2.3244   2.3782   2.4023   2.4251   2.4452   2.5147
  2.5226   2.5560   2.5874   2.6181   2.6659   2.6681   2.6981   2.7370
  2.7699   2.7968   2.8196   2.8651   2.9594   3.0170   3.0390   3.1180
  3.1640   3.2672   3.4677   4.0984   4.1168   4.1233   4.1434   4.1496
  4.2564   4.2680   4.3132   4.4224   4.4873   4.7864   4.8027   5.2392
 --------------------------------------------------------------
 
          Ground-State Mulliken Net Atomic Charges

     Atom                 Charge (a.u.)
  ----------------------------------------
      1 C                    -0.335803
      2 C                    -0.130863
      3 C                     0.095403
      4 C                    -0.177068
      5 C                    -0.132335
      6 C                    -0.168773
      7 C                     0.106591
      8 C                    -0.352512
      9 C                     0.572779
     10 F                    -0.235850
     11 F                    -0.248968
     12 C                     0.080936
     13 C                    -0.533538
     14 H                     0.142105
     15 H                     0.144890
     16 H                     0.133848
     17 H                     0.129624
     18 H                     0.128269
     19 H                     0.126828
     20 H                     0.168519
     21 H                     0.155876
     22 H                     0.155976
     23 H                     0.174066
  ----------------------------------------
  Sum of atomic charges =     0.000000

 -----------------------------------------------------------------
                    Cartesian Multipole Moments
 -----------------------------------------------------------------
    Charge (ESU x 10^10)
                 0.0000
    Dipole Moment (Debye)
         X      -0.6837      Y       0.4792      Z      -0.4941
       Tot       0.9701
    Quadrupole Moments (Debye-Ang)
        XX     -73.5365     XY       2.4801     YY     -68.8965
        XZ      -2.5645     YZ       1.7256     ZZ     -75.0749
    Octopole Moments (Debye-Ang^2)
       XXX      22.4345    XXY      -1.1153    XYY      11.6977
       YYY      -2.1538    XXZ       7.4938    XYZ      -4.3088
       YYZ       1.2699    XZZ      18.5671    YZZ      -6.4467
       ZZZ       9.0143
    Hexadecapole Moments (Debye-Ang^3)
      XXXX   -2326.1050   XXXY       2.7998   XXYY    -489.8804
      XYYY     -24.6238   YYYY    -804.4215   XXXZ     -22.3434
      XXYZ       1.6149   XYYZ       3.2557   YYYZ       0.3401
      XXZZ    -411.0889   XYZZ      -3.8488   YYZZ    -177.5967
      XZZZ      20.4495   YZZZ      -8.0007   ZZZZ    -189.5586
 -----------------------------------------------------------------
 Total job time:  51.34s(wall), 49.67s(cpu) 
 Fri Aug 12 13:13:36 2022

        *************************************************************
        *                                                           *
        *  Thank you very much for using Q-Chem.  Have a nice day.  *
        *                                                           *
        *************************************************************


