
Running Job 1 of 1 tidas/B032/conf-4/spe_input.inp
qchem tidas/B032/conf-4/spe_input.inp_239716.0 /home/a/aspuru/seifridm/acdc_laser/descriptor_computation/qchem239716/ 0
/gpfs/fs1/scinet/niagara/software/commercial/qc54/exe/qcprog.exe_s tidas/B032/conf-4/spe_input.inp_239716.0 /home/a/aspuru/seifridm/acdc_laser/descriptor_computation/qchem239716/
                  Welcome to Q-Chem
     A Quantum Leap Into The Future Of Chemistry


 Q-Chem 5.4, Q-Chem, Inc., Pleasanton, CA (2021)

 License issued to: SRG Alan Aspuru-Guzik, University of Toronto

 E. Epifanovsky,  A. T. B. Gilbert,  Xintian Feng,  Joonho Lee,  Yuezhi Mao,  
 N. Mardirossian,  P. Pokhilko,  A. White,  M. Wormit,  M. P. Coons,  
 A. L. Dempwolff,  Zhengting Gan,  D. Hait,  P. R. Horn,  L. D. Jacobson,  
 I. Kaliman,  J. Kussmann,  A. W. Lange,  Ka Un Lao,  D. S. Levine,  Jie Liu,  
 S. C. McKenzie,  A. F. Morrison,  K. Nanda,  F. Plasser,  D. R. Rehn,  
 M. L. Vidal,  Zhi-Qiang You,  Ying Zhu,  B. Alam,  B. Albrecht,  
 A. Aldossary,  E. Alguire,  J. H. Andersen,  D. Barton,  K. Begam,  A. Behn,  
 Y. A. Bernard,  E. J. Berquist,  H. Burton,  A. Carreras,  K. Carter-Fenk,  
 Romit Chakraborty,  A. D. Chien,  K. D. Closser,  V. Cofer-Shabica,  
 S. Dasgupta,  Jia Deng,  M. de Wergifosse,  M. Diedenhofen,  Hainam Do,  
 S. Ehlert,  Po-Tung Fang,  S. Fatehi,  Qingguo Feng,  T. Friedhoff,  
 J. Gayvert,  Qinghui Ge,  G. Gidofalvi,  M. Goldey,  J. Gomes,  
 C. Gonzalez-Espinoza,  S. Gulania,  A. Gunina,  M. W. D. Hanson-Heine,  
 P. H. P. Harbach,  A. W. Hauser,  M. F. Herbst,  M. Hernandez Vera,  
 M. Hodecker,  Z. C. Holden,  S. Houck,  Xunkun Huang,  Kerwin Hui,  
 B. C. Huynh,  M. Ivanov,  Hyunjun Ji,  Hanjie Jiang,  B. Kaduk,  S. Kaehler,  
 K. Khistyaev,  Jaehoon Kim,  P. Klunzinger,  Z. Koczor-Benda,  
 Joong Hoon Koh,  D. Kosenkov,  L. Koulias,  T. Kowalczyk,  C. M. Krauter,  
 K. Kue,  A. Kunitsa,  T. Kus,  A. Landau,  K. V. Lawler,  D. Lefrancois,  
 S. Lehtola,  Rain Li,  Yi-Pei Li,  Jiashu Liang,  M. Liebenthal,  
 Hung-Hsuan Lin,  You-Sheng Lin,  Fenglai Liu,  Kuan-Yu Liu,  
 M. Loipersberger,  A. Luenser,  A. Manjanath,  P. Manohar,  E. Mansoor,  
 S. F. Manzer,  Shan-Ping Mao,  A. V. Marenich,  T. Markovich,  S. Mason,  
 S. A. Maurer,  P. F. McLaughlin,  M. F. S. J. Menger,  J.-M. Mewes,  
 S. A. Mewes,  P. Morgante,  J. W. Mullinax,  K. J. Oosterbaan,  G. Paran,  
 Alexander C. Paul,  Suranjan K. Paul,  F. Pavosevic,  Zheng Pei,  S. Prager,  
 E. I. Proynov,  E. Ramos,  B. Rana,  A. E. Rask,  A. Rettig,  R. M. Richard,  
 F. Rob,  E. Rossomme,  T. Scheele,  M. Scheurer,  M. Schneider,  
 N. Sergueev,  S. M. Sharada,  W. Skomorowski,  D. W. Small,  C. J. Stein,  
 Yu-Chuan Su,  E. J. Sundstrom,  Zhen Tao,  J. Thirman,  T. Tsuchimochi,  
 N. M. Tubman,  S. P. Veccham,  O. Vydrov,  J. Wenzel,  J. Witte,  A. Yamada,  
 Kun Yao,  S. Yeganeh,  S. R. Yost,  A. Zech,  Igor Ying Zhang,  Xing Zhang,  
 Yu Zhang,  D. Zuev,  A. Aspuru-Guzik,  A. T. Bell,  N. A. Besley,  
 K. B. Bravaya,  B. R. Brooks,  D. Casanova,  Jeng-Da Chai,  S. Coriani,  
 C. J. Cramer,  A. E. DePrince, III,  R. A. DiStasio Jr.,  A. Dreuw,  
 B. D. Dunietz,  T. R. Furlani,  W. A. Goddard III,  S. Grimme,  
 S. Hammes-Schiffer,  T. Head-Gordon,  W. J. Hehre,  Chao-Ping Hsu,  
 T.-C. Jagau,  Yousung Jung,  A. Klamt,  Jing Kong,  D. S. Lambrecht,  
 WanZhen Liang,  N. J. Mayhall,  C. W. McCurdy,  J. B. Neaton,  T. Neudecker,  
 C. Ochsenfeld,  J. A. Parkhill,  R. Peverati,  V. A. Rassolov,  Yihan Shao,  
 L. V. Slipchenko,  R. P. Steele,  J. E. Subotnik,  A. J. W. Thom,  
 A. Tkatchenko,  D. G. Truhlar,  T. Van Voorhis,  T. A. Wesolowski,  
 K. B. Whaley,  H. L. Woodcock III,  P. M. Zimmerman,  S. Faraji,  
 P. M. W. Gill,  M. Head-Gordon,  J. M. Herbert,  A. I. Krylov

 Additional authors since Version 5.4.0: 
 Chandrima Chakravarty,  L. Cunha,  R. Kang,  Yongbin Kim,  S. Kotaru,  
 Shaozhi Li,  Xiangyuan Li,  F. Matz,  A. Molle,  V. Parravicini,  
 Haisheng Ren,  Hengyuan Shen,  Yingli Su,  Hung-Yi Tsai,  C. Utku,  
 Fang Wang,  Jeff Yang,  F. Zeller

 Contributors to earlier versions of Q-Chem not listed above: 
 R. D. Adamson,  B. Austin,  R. Baer,  J. Baker,  G. J. O. Beran,  
 K. Brandhorst,  S. T. Brown,  E. F. C. Byrd,  Arup K. Chakraborty,  
 G. K. L. Chan,  Chun-Min Chang,  Yunqing Chen,  C.-L. Cheng,  
 Siu Hung Chien,  D. M. Chipman,  D. L. Crittenden,  H. Dachsel,  
 R. J. Doerksen,  A. D. Dutoi,  R. G. Edgar,  J. Fosso-Tande,  
 L. Fusti-Molnar,  D. Ghosh,  A. Ghysels,  A. Golubeva-Zadorozhnaya,  
 J. Gonthier,  M. S. Gordon,  S. R. Gwaltney,  G. Hawkins,  J. E. Herr,  
 A. Heyden,  S. Hirata,  E. G. Hohenstein,  G. Kedziora,  F. J. Keil,  
 C. Kelley,  Jihan Kim,  R. A. King,  R. Z. Khaliullin,  P. P. Korambath,  
 W. Kurlancheek,  A. Laurent,  A. M. Lee,  M. S. Lee,  S. V. Levchenko,  
 Ching Yeh Lin,  D. Liotard,  E. Livshits,  R. C. Lochan,  I. Lotan,  
 L. A. Martinez-Martinez,  P. E. Maslen,  N. Nair,  D. P. O'Neill,  
 D. Neuhauser,  E. Neuscamman,  C. M. Oana,  R. Olivares-Amaya,  R. Olson,  
 T. M. Perrine,  B. Peters,  P. A. Pieniazek,  A. Prociuk,  Y. M. Rhee,  
 J. Ritchie,  M. A. Rohrdanz,  E. Rosta,  N. J. Russ,  H. F. Schaefer III,  
 M. W. Schmidt,  N. E. Schultz,  S. Sharma,  N. Shenvi,  C. D. Sherrill,  
 A. C. Simmonett,  A. Sodt,  T. Stein,  D. Stuck,  K. S. Thanthiriwatte,  
 V. Vanovschi,  L. Vogt,  Tao Wang,  A. Warshel,  M. A. Watson,  
 C. F. Williams,  Q. Wu,  X. Xu,  Jun Yang,  W. Zhang,  Yan Zhao

   Please cite Q-Chem as follows:
  "Software for the frontiers of quantum chemistry:
   An overview of developments in the Q-Chem 5 package"
   J. Chem. Phys. 155, 084801 (2021)
   https://doi.org/10.1063/5.0055522 (open access)

 Q-Chem 5.4.2 for Intel X86 EM64T Linux

 Parts of Q-Chem use Armadillo 9.900.5 (Nocturnal Misbehaviour).
 http://arma.sourceforge.net/

 Q-Chem begins on Fri Aug 12 12:43:23 2022  

 Host: 
0

     Scratch files written to /home/a/aspuru/seifridm/acdc_laser/descriptor_computation/qchem239716//
 Dec1321 |scratch|qcdevops|jenkins|workspace|build_RNUM 6959   
 Processing $rem in /gpfs/fs1/scinet/niagara/software/commercial/qc54/config/preferences:
 Processing $rem in /home/a/aspuru/seifridm/.qchemrc:

 Checking the input file for inconsistencies... 	...done.

--------------------------------------------------------------
User input:
--------------------------------------------------------------
$molecule
0 1
C           -3.94730732890000        1.38624038410000        0.28869606760000
C           -3.44991302180000        0.33976649390000       -0.35305945560000
C           -2.11705424240000       -0.23812563650000       -0.13878718260000
C           -2.05015204470000       -1.62355493250000        0.01118150760000
C           -0.85040437090000       -2.25478289770000        0.26835951730000
C            0.30721630860000       -1.50765821230000        0.37027208360000
C            0.27161619340000       -0.12704526740000        0.19114207820000
C            1.49615711210000        0.66280247190000        0.31706860500000
C            2.71779881250000        0.26288986570000        0.00721240590000
F            3.08035426760000       -0.90198475960000       -0.51833007340000
F            3.80300399550000        1.02170757830000        0.16623387880000
C           -0.94445068640000        0.52099266890000       -0.07683554100000
C           -0.94797596760000        1.99413649120000       -0.36341054670000
H           -4.95220688050000        1.73102001260000        0.11186260510000
H           -3.38288896220000        1.92357751000000        1.03175951410000
H           -4.07300218710000       -0.20384295570000       -1.05330887640000
H           -2.96063342140000       -2.20127037040000       -0.05854647880000
H           -0.81541024730000       -3.32623016790000        0.39477347030000
H            1.24162471190000       -1.99614368020000        0.59625361250000
H            1.41603558820000        1.66718118800000        0.70384436030000
H           -0.11700638580000        2.25346438500000       -1.01689581560000
H           -0.84785742380000        2.57000240690000        0.55712660980000
H           -1.87387319860000        2.28900680250000       -0.84872271920000
$end

$rem
BASIS = 6-31G*
GUI = 2
METHOD = B3LYP
PRINT_ORBITALS false
MOLDEN_FORMAT false
$end
--------------------------------------------------------------
 ----------------------------------------------------------------
             Standard Nuclear Orientation (Angstroms)
    I     Atom           X                Y                Z
 ----------------------------------------------------------------
    1      C       3.8683128739    -1.2212381911     0.3332227335
    2      C       3.3375001547    -0.2118864854    -0.3404283946
    3      C       1.9850121887     0.3261393808    -0.1462920606
    4      C       1.8703601584     1.7123028052    -0.0377254037
    5      C       0.6489478576     2.3094380925     0.1979973014
    6      C      -0.4827979822     1.5264742627     0.3195954085
    7      C      -0.3995019463     0.1431863682     0.1816700586
    8      C      -1.5967454657    -0.6840356199     0.3283981761
    9      C      -2.8303469959    -0.3355356153     0.0041692257
   10      F      -3.2308110956     0.8001557538    -0.5565516206
   11      F      -3.8895010878    -1.1260088433     0.1833538355
   12      C       0.8388281844    -0.4705031444    -0.0643126576
   13      C       0.8935679393    -1.9505097839    -0.3069529038
   14      H       4.8849549784    -1.5365072359     0.1688742163
   15      H       3.3202294057    -1.7553191715     1.0907216334
   16      H       3.9438703829     0.3317378065    -1.0551929493
   17      H       2.7607960569     2.3185253674    -0.1226463807
   18      H       0.5769826973     3.3823355881     0.2924235093
   19      H      -1.4340535847     1.9891715386     0.5289486446
   20      H      -1.4835918404    -1.6731769015     0.7450363056
   21      H       0.0740090732    -2.2573867343    -0.9542196196
   22      H       0.8102660829    -2.5019260821     0.6300822070
   23      H       1.8305245981    -2.2277687857    -0.7812964008
 ----------------------------------------------------------------
 Molecular Point Group                 C1    NOp =  1
 Largest Abelian Subgroup              C1    NOp =  1
 Nuclear Repulsion Energy =         744.81769507 hartrees
 There are       47 alpha and       47 beta electrons
 Requested basis set is 6-31G(d)
 There are 72 shells and 215 basis functions

 Total QAlloc Memory Limit   8000 MB
 Mega-Array Size       188 MB
 MEM_STATIC part       192 MB
 A cutoff of  1.0D-08 yielded   1832 shell pairs
 There are     17208 function pairs
 Smallest overlap matrix eigenvalue = 3.32E-04

 Scale SEOQF with 1.000000e-01/1.000000e-01/1.000000e+00

 Standard Electronic Orientation quadrupole field applied
 Nucleus-field energy     =     0.0000000193 hartrees
 Guess from superposition of atomic densities
 Warning:  Energy on first SCF cycle will be non-variational
 SAD guess density has 94.000000 electrons

 -----------------------------------------------------------------------
  General SCF calculation program by
  Eric Jon Sundstrom, Paul Horn, Yuezhi Mao, Dmitri Zuev, Alec White,
  David Stuck, Shaama M.S., Shane Yost, Joonho Lee, David Small,
  Daniel Levine, Susi Lehtola, Hugh Burton, Evgeny Epifanovsky,
  Bang C. Huynh
 -----------------------------------------------------------------------
 Exchange:     0.2000 Hartree-Fock + 0.0800 Slater + 0.7200 B88
 Correlation:  0.1900 VWN1RPA + 0.8100 LYP
 Using SG-1 standard quadrature grid
 A restricted SCF calculation will be
 performed using DIIS
 SCF converges when DIIS error is below 1.0e-05
 ---------------------------------------
  Cycle       Energy         DIIS error
 ---------------------------------------
    1    -627.6989082476      5.41e-02  
    2    -624.5900785274      6.20e-03  
    3    -624.4298458982      8.12e-03  
    4    -624.8084522772      1.55e-03  
    5    -624.8216933684      4.69e-04  
    6    -624.8225902047      2.49e-04  
    7    -624.8229672281      5.23e-05  
    8    -624.8229824733      1.74e-05  
    9    -624.8229847646      5.19e-06  Convergence criterion met
 ---------------------------------------
 SCF time:   CPU 52.06s  wall 59.00s 
 SCF   energy in the final basis set =     -624.8229847646
 Total energy in the final basis set =     -624.8229847646
 
 --------------------------------------------------------------
 
                    Orbital Energies (a.u.)
 --------------------------------------------------------------
 
 Alpha MOs
 -- Occupied --
-24.7396 -24.7319 -10.3542 -10.1995 -10.1988 -10.1958 -10.1925 -10.1912
-10.1844 -10.1841 -10.1834 -10.1818 -10.1771  -1.2815  -1.2210  -0.8715
 -0.8131  -0.7878  -0.7617  -0.7252  -0.6883  -0.6415  -0.6171  -0.5933
 -0.5693  -0.5608  -0.5173  -0.5127  -0.4955  -0.4797  -0.4556  -0.4436
 -0.4378  -0.4298  -0.4259  -0.4215  -0.4113  -0.4033  -0.3890  -0.3759
 -0.3592  -0.3403  -0.3339  -0.2958  -0.2757  -0.2323  -0.2201
 -- Virtual --
 -0.0253  -0.0133   0.0362   0.0637   0.0983   0.1044   0.1203   0.1344
  0.1517   0.1556   0.1605   0.1741   0.1845   0.1914   0.1975   0.2050
  0.2247   0.2475   0.2933   0.3131   0.3250   0.3389   0.3445   0.3791
  0.4174   0.4256   0.4769   0.4977   0.5028   0.5097   0.5220   0.5386
  0.5444   0.5562   0.5672   0.5765   0.5810   0.5925   0.6073   0.6142
  0.6232   0.6251   0.6408   0.6537   0.6663   0.6865   0.6926   0.7206
  0.7350   0.7575   0.7719   0.7965   0.8008   0.8365   0.8438   0.8523
  0.8561   0.8695   0.8817   0.9045   0.9378   0.9414   0.9528   0.9659
  0.9774   0.9870   0.9957   1.0205   1.0599   1.0748   1.0788   1.1037
  1.1336   1.1517   1.1733   1.1911   1.1958   1.2102   1.2239   1.2391
  1.2762   1.3010   1.3167   1.3573   1.3976   1.4130   1.4317   1.4461
  1.4588   1.4677   1.4851   1.5038   1.5274   1.5534   1.5798   1.6078
  1.6817   1.7074   1.7285   1.7703   1.7770   1.7936   1.8168   1.8194
  1.8303   1.8451   1.8577   1.9001   1.9177   1.9369   1.9492   1.9683
  1.9750   1.9987   2.0165   2.0250   2.0431   2.0673   2.0743   2.1084
  2.1416   2.1548   2.1865   2.1963   2.2190   2.2375   2.2527   2.2785
  2.3074   2.3180   2.3399   2.3831   2.3987   2.4165   2.4571   2.5082
  2.5315   2.5393   2.5787   2.6378   2.6699   2.6726   2.7063   2.7457
  2.7494   2.8050   2.8245   2.8793   2.9182   3.0033   3.0365   3.1344
  3.1580   3.2913   3.4730   4.0934   4.1041   4.1220   4.1261   4.1715
  4.2416   4.2728   4.3236   4.4164   4.4824   4.7428   4.8008   5.2333
 --------------------------------------------------------------
 
          Ground-State Mulliken Net Atomic Charges

     Atom                 Charge (a.u.)
  ----------------------------------------
      1 C                    -0.327563
      2 C                    -0.148042
      3 C                     0.087955
      4 C                    -0.174656
      5 C                    -0.133564
      6 C                    -0.179541
      7 C                     0.119311
      8 C                    -0.317224
      9 C                     0.553343
     10 F                    -0.236205
     11 F                    -0.249669
     12 C                     0.074160
     13 C                    -0.542201
     14 H                     0.143732
     15 H                     0.148699
     16 H                     0.137775
     17 H                     0.125346
     18 H                     0.128819
     19 H                     0.132972
     20 H                     0.165298
     21 H                     0.162412
     22 H                     0.156555
     23 H                     0.172287
  ----------------------------------------
  Sum of atomic charges =     0.000000

 -----------------------------------------------------------------
                    Cartesian Multipole Moments
 -----------------------------------------------------------------
    Charge (ESU x 10^10)
                 0.0000
    Dipole Moment (Debye)
         X       1.2463      Y      -0.3319      Z       0.2068
       Tot       1.3062
    Quadrupole Moments (Debye-Ang)
        XX     -73.7771     XY      -0.6152     YY     -69.1620
        XZ      -1.8538     YZ      -0.7713     ZZ     -75.3952
    Octopole Moments (Debye-Ang^2)
       XXX     -17.1628    XXY       1.0569    XYY     -13.4144
       YYY       6.4695    XXZ      -5.5267    XYZ      -5.3550
       YYZ       3.5186    XZZ     -21.4068    YZZ      -5.0856
       ZZZ      -4.5836
    Hexadecapole Moments (Debye-Ang^3)
      XXXX   -2500.4040   XXXY     -22.9034   XXYY    -545.9188
      XYYY      21.3550   YYYY    -801.4476   XXXZ     -21.8602
      XXYZ     -10.0618   XYYZ       5.0175   YYYZ      -7.3899
      XXZZ    -443.1799   XYZZ       2.7780   YYZZ    -163.6523
      XZZZ       9.5675   YZZZ      -8.9162   ZZZZ    -125.6223
 -----------------------------------------------------------------
 Total job time:  61.34s(wall), 52.51s(cpu) 
 Fri Aug 12 12:44:24 2022

        *************************************************************
        *                                                           *
        *  Thank you very much for using Q-Chem.  Have a nice day.  *
        *                                                           *
        *************************************************************


