
Running Job 1 of 1 fragments/C021/conf-1/spe_input.inp
qchem fragments/C021/conf-1/spe_input.inp_258306.0 /gpfs/fs0/scratch/a/aspuru/rhickman/descriptor_computation/qchem258306/ 0
/scinet/niagara/software/commercial/qc52/exe/qcprog.exe_s fragments/C021/conf-1/spe_input.inp_258306.0 /gpfs/fs0/scratch/a/aspuru/rhickman/descriptor_computation/qchem258306/
                  Welcome to Q-Chem
     A Quantum Leap Into The Future Of Chemistry


 Q-Chem 5.2, Q-Chem, Inc., Pleasanton, CA (2019)

 License issued to: SRG Alan Aspuru-Guzik, University of Toronto

 Yihan Shao,  Zhengting Gan,  E. Epifanovsky,  A. T. B. Gilbert,  M. Wormit,  
 J. Kussmann,  A. W. Lange,  A. Behn,  Jia Deng,  Xintian Feng,  D. Ghosh,  
 M. Goldey,  P. R. Horn,  L. D. Jacobson,  I. Kaliman,  T. Kus,  A. Landau,  
 Jie Liu,  E. I. Proynov,  R. M. Richard,  R. P. Steele,  E. J. Sundstrom,  
 H. L. Woodcock III,  P. M. Zimmerman,  D. Zuev,  B. Albrecht,  E. Alguire,  
 S. A. Baeppler,  D. Barton,  Z. Benda,  Y. A. Bernard,  E. J. Berquist,  
 K. B. Bravaya,  H. Burton,  D. Casanova,  Chun-Min Chang,  Yunqing Chen,  
 A. Chien,  K. D. Closser,  M. P. Coons,  S. Coriani,  S. Dasgupta,  
 A. L. Dempwolff,  M. Diedenhofen,  Hainam Do,  R. G. Edgar,  Po-Tung Fang,  
 S. Faraji,  S. Fatehi,  Qingguo Feng,  K. D. Fenk,  J. Fosso-Tande,  
 J. Gayvert,  Qinghui Ge,  A. Ghysels,  G. Gidofalvi,  J. Gomes,  
 J. Gonthier,  A. Gunina,  D. Hait,  M. W. D. Hanson-Heine,  
 P. H. P. Harbach,  A. W. Hauser,  M. F. Herbst,  J. E. Herr,  
 E. G. Hohenstein,  Z. C. Holden,  Kerwin Hui,  B. C. Huynh,  T.-C. Jagau,  
 Hyunjun Ji,  B. Kaduk,  K. Khistyaev,  Jaehoon Kim,  P. Klunzinger,  K. Koh,  
 D. Kosenkov,  L. Koulias,  T. Kowalczyk,  C. M. Krauter,  A. Kunitsa,  
 Ka Un Lao,  A. Laurent,  K. V. Lawler,  Joonho Lee,  D. Lefrancois,  
 S. Lehtola,  D. S. Levine,  Yi-Pei Li,  You-Sheng Lin,  Fenglai Liu,  
 E. Livshits,  A. Luenser,  P. Manohar,  E. Mansoor,  S. F. Manzer,  
 Shan-Ping Mao,  Yuezhi Mao,  N. Mardirossian,  A. V. Marenich,  
 T. Markovich,  L. A. Martinez-Martinez,  S. A. Maurer,  N. J. Mayhall,  
 S. C. McKenzie,  J.-M. Mewes,  P. Morgante,  A. F. Morrison,  
 J. W. Mullinax,  K. Nanda,  T. S. Nguyen-Beck,  R. Olivares-Amaya,  
 J. A. Parkhill,  Zheng Pei,  T. M. Perrine,  F. Plasser,  P. Pokhilko,  
 S. Prager,  A. Prociuk,  E. Ramos,  D. R. Rehn,  F. Rob,  M. Scheurer,  
 M. Schneider,  N. Sergueev,  S. M. Sharada,  S. Sharma,  D. W. Small,  
 T. Stauch,  T. Stein,  Yu-Chuan Su,  A. J. W. Thom,  A. Tkatchenko,  
 T. Tsuchimochi,  N. M. Tubman,  L. Vogt,  M. L. Vidal,  O. Vydrov,  
 M. A. Watson,  J. Wenzel,  M. de Wergifosse,  T. A. Wesolowski,  A. White,  
 J. Witte,  A. Yamada,  Jun Yang,  K. Yao,  S. Yeganeh,  S. R. Yost,  
 Zhi-Qiang You,  A. Zech,  Igor Ying Zhang,  Xing Zhang,  Yan Zhao,  
 Ying Zhu,  B. R. Brooks,  G. K. L. Chan,  C. J. Cramer,  M. S. Gordon,  
 W. J. Hehre,  A. Klamt,  M. W. Schmidt,  C. D. Sherrill,  D. G. Truhlar,  
 A. Aspuru-Guzik,  R. Baer,  A. T. Bell,  N. A. Besley,  Jeng-Da Chai,  
 A. E. DePrince, III,  R. A. DiStasio Jr.,  A. Dreuw,  B. D. Dunietz,  
 T. R. Furlani,  Chao-Ping Hsu,  Yousung Jung,  Jing Kong,  D. S. Lambrecht,  
 WanZhen Liang,  C. Ochsenfeld,  V. A. Rassolov,  L. V. Slipchenko,  
 J. E. Subotnik,  T. Van Voorhis,  J. M. Herbert,  A. I. Krylov,  
 P. M. W. Gill,  M. Head-Gordon

 Contributors to earlier versions of Q-Chem not listed above: 
 R. D. Adamson,  B. Austin,  J. Baker,  G. J. O. Beran,  K. Brandhorst,  
 S. T. Brown,  E. F. C. Byrd,  A. K. Chakraborty,  C.-L. Cheng,  
 Siu Hung Chien,  D. M. Chipman,  D. L. Crittenden,  H. Dachsel,  
 R. J. Doerksen,  A. D. Dutoi,  L. Fusti-Molnar,  W. A. Goddard III,  
 A. Golubeva-Zadorozhnaya,  S. R. Gwaltney,  G. Hawkins,  A. Heyden,  
 S. Hirata,  G. Kedziora,  F. J. Keil,  C. Kelley,  Jihan Kim,  R. A. King,  
 R. Z. Khaliullin,  P. P. Korambath,  W. Kurlancheek,  A. M. Lee,  M. S. Lee,  
 S. V. Levchenko,  Ching Yeh Lin,  D. Liotard,  R. C. Lochan,  I. Lotan,  
 P. E. Maslen,  N. Nair,  D. P. O'Neill,  D. Neuhauser,  E. Neuscamman,  
 C. M. Oana,  R. Olson,  B. Peters,  R. Peverati,  P. A. Pieniazek,  
 Y. M. Rhee,  J. Ritchie,  M. A. Rohrdanz,  E. Rosta,  N. J. Russ,  
 H. F. Schaefer III,  N. E. Schultz,  N. Shenvi,  A. C. Simmonett,  A. Sodt,  
 D. Stuck,  K. S. Thanthiriwatte,  V. Vanovschi,  Tao Wang,  A. Warshel,  
 C. F. Williams,  Q. Wu,  X. Xu,  W. Zhang

 Please cite Q-Chem as follows:
 Y. Shao et al., Mol. Phys. 113, 184-215 (2015)
 DOI: 10.1080/00268976.2014.952696

 Q-Chem 5.2.1 for Intel X86 EM64T Linux

 Parts of Q-Chem use Armadillo 8.300.2 (Tropical Shenanigans).
 http://arma.sourceforge.net/

 Q-Chem begins on Mon Feb  7 08:52:46 2022  

Host: 
0

     Scratch files written to /gpfs/fs0/scratch/a/aspuru/rhickman/descriptor_computation/qchem258306//
 Jul1719 |scratch|qcdevops|jenkins|workspace|build_RNUM -1
Processing $rem in /scinet/niagara/software/commercial/qc52/config/preferences:
	 MEM_TOTAL  4000 
NAlpha2: 102
NElect   102
Mult     1

Checking the input file for inconsistencies... 	...done.

--------------------------------------------------------------
User input:
--------------------------------------------------------------
$molecule
0 1
C        -4.62816689900000   -0.26939354530000   -0.09559975950000
C        -3.49002658680000    0.41496209140000   -0.10479607370000
C        -2.14352339030000   -0.13875020460000   -0.06517574640000
C        -1.87413378400000   -1.50787487910000   -0.00925995560000
C        -0.57931056670000   -1.97580658370000    0.02408790070000
C         0.51606531060000   -1.11020176800000    0.00389563160000
C         1.88173194400000   -1.62740698610000    0.03098049820000
C         2.24486693150000   -2.73803377500000    0.65926526330000
C         0.24416253490000    0.26424807950000   -0.05487334710000
C         1.37534335860000    1.25417523730000   -0.06235182020000
F         2.11634719850000    1.19114033920000   -1.18864029880000
F         0.96099063160000    2.52686385800000    0.02700246500000
F         2.23561636800000    1.07529727870000    0.95767566530000
C        -1.05698737670000    0.73562914420000   -0.08575333800000
H        -5.57965684680000    0.23246236510000   -0.12697314440000
H        -4.66519099220000   -1.34443224990000   -0.05706945730000
H        -3.52847004590000    1.49633177270000   -0.14508710500000
H        -2.68822653750000   -2.21530784520000    0.00329942770000
H        -0.39778796970000   -3.03924872190000    0.04526450350000
H         2.62877109420000   -1.04587354820000   -0.49056745860000
H         1.54861723750000   -3.33251363320000    1.22681674420000
H         3.26540953960000   -3.07843965920000    0.64862264250000
H        -1.23459851490000    1.80024554870000   -0.12476531270000
$end

$rem
BASIS = 6-31G*
GUI = 2
METHOD = B3LYP
PRINT_ORBITALS false
MOLDEN_FORMAT false
--------------------------------------------------------------
 ----------------------------------------------------------------
             Standard Nuclear Orientation (Angstroms)
    I     Atom           X                Y                Z
 ----------------------------------------------------------------
    1      C       4.5516407728     0.1941989201    -0.0519888715
    2      C       3.3594432134     0.7791660691    -0.0683898990
    3      C       2.0651684613     0.1146483063    -0.0012561193
    4      C       1.9134211601    -1.2705306915     0.0906765224
    5      C       0.6633918353    -1.8450922737     0.1534857499
    6      C      -0.5015396882    -1.0757913942     0.1282183880
    7      C      -1.8176824304    -1.7044181239     0.2048793175
    8      C      -2.1018191008    -2.9001821064    -0.2946359277
    9      C      -0.3476658600     0.3151685375     0.0384932010
   10      C      -1.5593539604     1.2034199509    -0.0105285824
   11      F      -2.2589238224     1.1957100998     1.1436500834
   12      F      -1.2591690706     2.4900392593    -0.2427105867
   13      F      -2.4304182603     0.8496043375    -0.9741594988
   14      C       0.9082940482     0.8934188895    -0.0273552145
   15      H       5.4567795470     0.7737300967    -0.1071629573
   16      H       4.6801610074    -0.8722935079     0.0161289267
   17      H       3.3055817133     1.8583695641    -0.1382498266
   18      H       2.7848123285    -1.9055735779     0.1183191518
   19      H       0.5737807320    -2.9164113912     0.2459697037
   20      H      -2.5965603212    -1.1361076193     0.6933803963
   21      H      -1.3737464242    -3.4902795770    -0.8256536058
   22      H      -3.0884287110    -3.3210713171    -0.2112668934
   23      H       0.9944297997     1.9674175565    -0.1020762619
 ----------------------------------------------------------------
 Molecular Point Group                 C1    NOp =  1
 Largest Abelian Subgroup              C1    NOp =  1
 Nuclear Repulsion Energy =         878.99466052 hartrees
 There are       51 alpha and       51 beta electrons
 Requested basis set is 6-31G(d)
 There are 74 shells and 228 basis functions

 Total QAlloc Memory Limit   4000 MB
 Mega-Array Size       188 MB
 MEM_STATIC part       192 MB
 A cutoff of  1.0D-08 yielded   1826 shell pairs
 There are     18915 function pairs
 Smallest overlap matrix eigenvalue = 3.18E-04

 Scale SEOQF with 1.000000e-02/1.000000e-01/1.000000e+00

 Standard Electronic Orientation quadrupole field applied
 Nucleus-field energy     =    -0.0000000057 hartrees
 Guess from superposition of atomic densities
 Warning:  Energy on first SCF cycle will be non-variational
 SAD guess density has 102.000000 electrons

 -----------------------------------------------------------------------
  General SCF calculation program by
  Eric Jon Sundstrom, Paul Horn, Yuezhi Mao, Dmitri Zuev, Alec White,
  David Stuck, Shaama M.S., Shane Yost, Joonho Lee, David Small,
  Daniel Levine, Susi Lehtola, Hugh Burton, Evgeny Epifanovsky,
  Bang C. Huynh
 -----------------------------------------------------------------------
 Exchange:     0.2000 Hartree-Fock + 0.0800 Slater + 0.7200 B88
 Correlation:  0.1900 VWN1RPA + 0.8100 LYP
 Using SG-1 standard quadrature grid
 A restricted SCF calculation will be
 performed using DIIS
 SCF converges when DIIS error is below 1.0e-05
 ---------------------------------------
  Cycle       Energy         DIIS error
 ---------------------------------------
    1    -727.0807975656      5.19e-02  
    2    -723.8551987392      6.15e-03  
    3    -723.7575178141      7.85e-03  
    4    -724.0693281390      1.34e-03  
    5    -724.0795070353      4.37e-04  
    6    -724.0806095224      1.96e-04  
    7    -724.0808489696      4.06e-05  
    8    -724.0808574397      1.78e-05  
    9    -724.0808596139      3.85e-06  Convergence criterion met
 ---------------------------------------
 SCF time:   CPU 37.76s  wall 38.00s 
 SCF   energy in the final basis set =     -724.0808596139
 Total energy in the final basis set =     -724.0808596139
 
 --------------------------------------------------------------
 
                    Orbital Energies (a.u.)
 --------------------------------------------------------------
 
 Alpha MOs
 -- Occupied --
-24.7231 -24.7182 -24.7170 -10.4284 -10.2149 -10.2142 -10.2083 -10.2045
-10.2020 -10.2006 -10.1992 -10.1969 -10.1890 -10.1883  -1.3039  -1.2131
 -1.2089  -0.8867  -0.8228  -0.7893  -0.7730  -0.7323  -0.6946  -0.6466
 -0.6324  -0.5942  -0.5797  -0.5778  -0.5752  -0.5327  -0.5086  -0.4861
 -0.4767  -0.4597  -0.4560  -0.4484  -0.4345  -0.4283  -0.4165  -0.4103
 -0.4019  -0.3946  -0.3928  -0.3874  -0.3713  -0.3531  -0.3476  -0.3244
 -0.2788  -0.2701  -0.2249
 -- Virtual --
 -0.0565  -0.0193   0.0114   0.0657   0.0982   0.1052   0.1203   0.1314
  0.1433   0.1523   0.1573   0.1779   0.1972   0.2002   0.2231   0.2305
  0.2446   0.2570   0.2650   0.3050   0.3167   0.3400   0.3580   0.3714
  0.3803   0.4253   0.4553   0.4802   0.4879   0.5122   0.5178   0.5262
  0.5378   0.5466   0.5560   0.5619   0.5716   0.5904   0.5985   0.6045
  0.6077   0.6156   0.6235   0.6403   0.6515   0.6744   0.6839   0.6956
  0.7066   0.7514   0.7633   0.7995   0.8067   0.8153   0.8452   0.8541
  0.8703   0.8718   0.8828   0.9077   0.9438   0.9481   0.9565   0.9649
  0.9766   1.0016   1.0196   1.0465   1.0611   1.0711   1.1199   1.1290
  1.1333   1.1477   1.1593   1.1680   1.2000   1.2275   1.2398   1.2524
  1.2832   1.3097   1.3224   1.3398   1.3562   1.3763   1.4055   1.4139
  1.4309   1.4440   1.4533   1.4701   1.4802   1.4965   1.5057   1.5225
  1.5682   1.6090   1.6477   1.6626   1.6739   1.6801   1.7007   1.7578
  1.7696   1.7970   1.8188   1.8428   1.8617   1.8708   1.8798   1.9078
  1.9160   1.9695   1.9734   1.9848   1.9933   1.9941   2.0071   2.0275
  2.0430   2.0565   2.0813   2.0970   2.1023   2.1102   2.1494   2.1609
  2.1772   2.2004   2.2123   2.2376   2.2592   2.2738   2.2949   2.3209
  2.3281   2.4127   2.4155   2.4282   2.4398   2.4722   2.5255   2.5642
  2.6021   2.6329   2.6569   2.6873   2.7004   2.7220   2.7724   2.7862
  2.8354   2.8756   2.9226   2.9680   3.0303   3.0346   3.0479   3.0935
  3.1610   3.2449   3.4544   4.0795   4.0808   4.1083   4.1259   4.1444
  4.2138   4.2641   4.2992   4.4040   4.4489   4.5385   4.7665   4.8533
  5.7046
 --------------------------------------------------------------
 
          Ground-State Mulliken Net Atomic Charges

     Atom                 Charge (a.u.)
  ----------------------------------------
      1 C                    -0.352314
      2 C                    -0.110844
      3 C                     0.181496
      4 C                    -0.170097
      5 C                    -0.194547
      6 C                     0.120430
      7 C                    -0.120227
      8 C                    -0.338127
      9 C                    -0.057419
     10 C                     0.789563
     11 F                    -0.270131
     12 F                    -0.266782
     13 F                    -0.266697
     14 C                    -0.254427
     15 H                     0.149971
     16 H                     0.145376
     17 H                     0.133457
     18 H                     0.134488
     19 H                     0.139358
     20 H                     0.156036
     21 H                     0.146849
     22 H                     0.150666
     23 H                     0.153921
  ----------------------------------------
  Sum of atomic charges =     0.000000

 -----------------------------------------------------------------
                    Cartesian Multipole Moments
 -----------------------------------------------------------------
    Charge (ESU x 10^10)
                 0.0000
    Dipole Moment (Debye)
         X       1.9365      Y      -1.5451      Z       0.0372
       Tot       2.4777
    Quadrupole Moments (Debye-Ang)
        XX     -73.7635     XY       3.2628     YY     -72.9534
        XZ      -0.6925     YZ       0.3074     ZZ     -82.5204
    Octopole Moments (Debye-Ang^2)
       XXX     -17.9444    XXY       0.6065    XYY      -6.7605
       YYY      18.5650    XXZ       1.6452    XYZ      -1.4179
       YYZ      -4.1571    XZZ     -19.5536    YZZ      13.2031
       ZZZ      -1.1090
    Hexadecapole Moments (Debye-Ang^3)
      XXXX   -2236.9472   XXXY     -24.8262   XXYY    -545.3083
      XYYY     -35.1103   YYYY   -1088.1994   XXXZ     -10.7297
      XXYZ      -6.1786   XYYZ       5.6833   YYYZ      15.1121
      XXZZ    -465.2487   XYZZ     -23.1803   YYZZ    -223.2005
      XZZZ       0.9866   YZZZ      -0.2282   ZZZZ    -153.1044
 -----------------------------------------------------------------
Archival summary:
1\1\nia0005.scinet.local\SP\ProcedureUnspecified\6-31G*\3119\rhickman\MonFeb708:53:252022MonFeb708:53:252022\0\\#,ProcedureUnspecified,6-31G*,\\0,1\F\C,1,1.3463\F,2,1.34142,1,105.841\F,2,1.34966,1,105.976,3,111.877,0\C,2,1.50319,1,112.929,3,-124.228,0\C,5,1.38425,2,118.88,1,126.053,0\H,6,1.08004,5,119.41,2,0.625044,0\C,6,1.39482,5,121.226,2,-179.267,0\C,8,1.3965,6,117.705,5,0.140289,0\H,9,1.07859,8,119.861,6,-179.702,0\C,9,1.37719,8,121.028,6,-0.0108678,0\H,11,1.07903,9,119.571,8,-178.662,0\C,11,1.39625,9,121.776,8,0.00854615,0\C,8,1.45645,6,118.78,5,-179.764,0\H,14,1.0828,8,114.426,6,-0.187053,0\C,14,1.32808,8,126.598,6,179.831,0\H,16,1.07619,14,121.144,8,179.955,0\H,16,1.07637,14,122.983,8,-0.0485013,0\C,13,1.46058,11,120.913,9,-179.589,0\H,19,1.08086,13,116.537,11,148.324,0\C,19,1.32669,13,124.136,11,-32.4306,0\H,21,1.07587,19,121.321,13,179.924,0\H,21,1.07717,19,122.318,13,-1.75442,0\\\@

 Total job time:  38.82s(wall), 37.95s(cpu) 
 Mon Feb  7 08:53:25 2022

        *************************************************************
        *                                                           *
        *  Thank you very much for using Q-Chem.  Have a nice day.  *
        *                                                           *
        *************************************************************


