
Running Job 1 of 1 tidas/B054/conf-3/spe_input.inp
qchem tidas/B054/conf-3/spe_input.inp_239601.0 /home/a/aspuru/seifridm/acdc_laser/descriptor_computation/qchem239601/ 0
/gpfs/fs1/scinet/niagara/software/commercial/qc54/exe/qcprog.exe_s tidas/B054/conf-3/spe_input.inp_239601.0 /home/a/aspuru/seifridm/acdc_laser/descriptor_computation/qchem239601/
                  Welcome to Q-Chem
     A Quantum Leap Into The Future Of Chemistry


 Q-Chem 5.4, Q-Chem, Inc., Pleasanton, CA (2021)

 License issued to: SRG Alan Aspuru-Guzik, University of Toronto

 E. Epifanovsky,  A. T. B. Gilbert,  Xintian Feng,  Joonho Lee,  Yuezhi Mao,  
 N. Mardirossian,  P. Pokhilko,  A. White,  M. Wormit,  M. P. Coons,  
 A. L. Dempwolff,  Zhengting Gan,  D. Hait,  P. R. Horn,  L. D. Jacobson,  
 I. Kaliman,  J. Kussmann,  A. W. Lange,  Ka Un Lao,  D. S. Levine,  Jie Liu,  
 S. C. McKenzie,  A. F. Morrison,  K. Nanda,  F. Plasser,  D. R. Rehn,  
 M. L. Vidal,  Zhi-Qiang You,  Ying Zhu,  B. Alam,  B. Albrecht,  
 A. Aldossary,  E. Alguire,  J. H. Andersen,  D. Barton,  K. Begam,  A. Behn,  
 Y. A. Bernard,  E. J. Berquist,  H. Burton,  A. Carreras,  K. Carter-Fenk,  
 Romit Chakraborty,  A. D. Chien,  K. D. Closser,  V. Cofer-Shabica,  
 S. Dasgupta,  Jia Deng,  M. de Wergifosse,  M. Diedenhofen,  Hainam Do,  
 S. Ehlert,  Po-Tung Fang,  S. Fatehi,  Qingguo Feng,  T. Friedhoff,  
 J. Gayvert,  Qinghui Ge,  G. Gidofalvi,  M. Goldey,  J. Gomes,  
 C. Gonzalez-Espinoza,  S. Gulania,  A. Gunina,  M. W. D. Hanson-Heine,  
 P. H. P. Harbach,  A. W. Hauser,  M. F. Herbst,  M. Hernandez Vera,  
 M. Hodecker,  Z. C. Holden,  S. Houck,  Xunkun Huang,  Kerwin Hui,  
 B. C. Huynh,  M. Ivanov,  Hyunjun Ji,  Hanjie Jiang,  B. Kaduk,  S. Kaehler,  
 K. Khistyaev,  Jaehoon Kim,  P. Klunzinger,  Z. Koczor-Benda,  
 Joong Hoon Koh,  D. Kosenkov,  L. Koulias,  T. Kowalczyk,  C. M. Krauter,  
 K. Kue,  A. Kunitsa,  T. Kus,  A. Landau,  K. V. Lawler,  D. Lefrancois,  
 S. Lehtola,  Rain Li,  Yi-Pei Li,  Jiashu Liang,  M. Liebenthal,  
 Hung-Hsuan Lin,  You-Sheng Lin,  Fenglai Liu,  Kuan-Yu Liu,  
 M. Loipersberger,  A. Luenser,  A. Manjanath,  P. Manohar,  E. Mansoor,  
 S. F. Manzer,  Shan-Ping Mao,  A. V. Marenich,  T. Markovich,  S. Mason,  
 S. A. Maurer,  P. F. McLaughlin,  M. F. S. J. Menger,  J.-M. Mewes,  
 S. A. Mewes,  P. Morgante,  J. W. Mullinax,  K. J. Oosterbaan,  G. Paran,  
 Alexander C. Paul,  Suranjan K. Paul,  F. Pavosevic,  Zheng Pei,  S. Prager,  
 E. I. Proynov,  E. Ramos,  B. Rana,  A. E. Rask,  A. Rettig,  R. M. Richard,  
 F. Rob,  E. Rossomme,  T. Scheele,  M. Scheurer,  M. Schneider,  
 N. Sergueev,  S. M. Sharada,  W. Skomorowski,  D. W. Small,  C. J. Stein,  
 Yu-Chuan Su,  E. J. Sundstrom,  Zhen Tao,  J. Thirman,  T. Tsuchimochi,  
 N. M. Tubman,  S. P. Veccham,  O. Vydrov,  J. Wenzel,  J. Witte,  A. Yamada,  
 Kun Yao,  S. Yeganeh,  S. R. Yost,  A. Zech,  Igor Ying Zhang,  Xing Zhang,  
 Yu Zhang,  D. Zuev,  A. Aspuru-Guzik,  A. T. Bell,  N. A. Besley,  
 K. B. Bravaya,  B. R. Brooks,  D. Casanova,  Jeng-Da Chai,  S. Coriani,  
 C. J. Cramer,  A. E. DePrince, III,  R. A. DiStasio Jr.,  A. Dreuw,  
 B. D. Dunietz,  T. R. Furlani,  W. A. Goddard III,  S. Grimme,  
 S. Hammes-Schiffer,  T. Head-Gordon,  W. J. Hehre,  Chao-Ping Hsu,  
 T.-C. Jagau,  Yousung Jung,  A. Klamt,  Jing Kong,  D. S. Lambrecht,  
 WanZhen Liang,  N. J. Mayhall,  C. W. McCurdy,  J. B. Neaton,  T. Neudecker,  
 C. Ochsenfeld,  J. A. Parkhill,  R. Peverati,  V. A. Rassolov,  Yihan Shao,  
 L. V. Slipchenko,  R. P. Steele,  J. E. Subotnik,  A. J. W. Thom,  
 A. Tkatchenko,  D. G. Truhlar,  T. Van Voorhis,  T. A. Wesolowski,  
 K. B. Whaley,  H. L. Woodcock III,  P. M. Zimmerman,  S. Faraji,  
 P. M. W. Gill,  M. Head-Gordon,  J. M. Herbert,  A. I. Krylov

 Additional authors since Version 5.4.0: 
 Chandrima Chakravarty,  L. Cunha,  R. Kang,  Yongbin Kim,  S. Kotaru,  
 Shaozhi Li,  Xiangyuan Li,  F. Matz,  A. Molle,  V. Parravicini,  
 Haisheng Ren,  Hengyuan Shen,  Yingli Su,  Hung-Yi Tsai,  C. Utku,  
 Fang Wang,  Jeff Yang,  F. Zeller

 Contributors to earlier versions of Q-Chem not listed above: 
 R. D. Adamson,  B. Austin,  R. Baer,  J. Baker,  G. J. O. Beran,  
 K. Brandhorst,  S. T. Brown,  E. F. C. Byrd,  Arup K. Chakraborty,  
 G. K. L. Chan,  Chun-Min Chang,  Yunqing Chen,  C.-L. Cheng,  
 Siu Hung Chien,  D. M. Chipman,  D. L. Crittenden,  H. Dachsel,  
 R. J. Doerksen,  A. D. Dutoi,  R. G. Edgar,  J. Fosso-Tande,  
 L. Fusti-Molnar,  D. Ghosh,  A. Ghysels,  A. Golubeva-Zadorozhnaya,  
 J. Gonthier,  M. S. Gordon,  S. R. Gwaltney,  G. Hawkins,  J. E. Herr,  
 A. Heyden,  S. Hirata,  E. G. Hohenstein,  G. Kedziora,  F. J. Keil,  
 C. Kelley,  Jihan Kim,  R. A. King,  R. Z. Khaliullin,  P. P. Korambath,  
 W. Kurlancheek,  A. Laurent,  A. M. Lee,  M. S. Lee,  S. V. Levchenko,  
 Ching Yeh Lin,  D. Liotard,  E. Livshits,  R. C. Lochan,  I. Lotan,  
 L. A. Martinez-Martinez,  P. E. Maslen,  N. Nair,  D. P. O'Neill,  
 D. Neuhauser,  E. Neuscamman,  C. M. Oana,  R. Olivares-Amaya,  R. Olson,  
 T. M. Perrine,  B. Peters,  P. A. Pieniazek,  A. Prociuk,  Y. M. Rhee,  
 J. Ritchie,  M. A. Rohrdanz,  E. Rosta,  N. J. Russ,  H. F. Schaefer III,  
 M. W. Schmidt,  N. E. Schultz,  S. Sharma,  N. Shenvi,  C. D. Sherrill,  
 A. C. Simmonett,  A. Sodt,  T. Stein,  D. Stuck,  K. S. Thanthiriwatte,  
 V. Vanovschi,  L. Vogt,  Tao Wang,  A. Warshel,  M. A. Watson,  
 C. F. Williams,  Q. Wu,  X. Xu,  Jun Yang,  W. Zhang,  Yan Zhao

   Please cite Q-Chem as follows:
  "Software for the frontiers of quantum chemistry:
   An overview of developments in the Q-Chem 5 package"
   J. Chem. Phys. 155, 084801 (2021)
   https://doi.org/10.1063/5.0055522 (open access)

 Q-Chem 5.4.2 for Intel X86 EM64T Linux

 Parts of Q-Chem use Armadillo 9.900.5 (Nocturnal Misbehaviour).
 http://arma.sourceforge.net/

 Q-Chem begins on Fri Aug 12 12:43:23 2022  

 Host: 
0

     Scratch files written to /home/a/aspuru/seifridm/acdc_laser/descriptor_computation/qchem239601//
 Dec1321 |scratch|qcdevops|jenkins|workspace|build_RNUM 6959   
 Processing $rem in /gpfs/fs1/scinet/niagara/software/commercial/qc54/config/preferences:
 Processing $rem in /home/a/aspuru/seifridm/.qchemrc:

 Checking the input file for inconsistencies... 	...done.

--------------------------------------------------------------
User input:
--------------------------------------------------------------
$molecule
0 1
C           -1.98022032700000        3.97851152820000        0.21473380500000
C           -2.48405488790000        2.75490150460000        0.11089126170000
C           -1.73854150070000        1.50103463630000        0.10570420660000
C           -2.42687789320000        0.31139721180000       -0.14367606660000
C           -1.78862396870000       -0.91662114840000       -0.15129908140000
C           -2.51941003770000       -2.19960473790000       -0.39356383990000
C           -0.41832578950000       -0.93545851100000        0.08519885740000
F            0.20110090280000       -2.13321216610000        0.13380300270000
C            0.31534632010000        0.22483806500000        0.32079081860000
C            1.75679124050000        0.21072909980000        0.56502374520000
C            2.64107041660000       -0.55943584700000       -0.04766122260000
F            2.41788224640000       -1.42386850170000       -1.02228767110000
F            3.94570235150000       -0.51977156990000        0.21391719000000
C           -0.36956830200000        1.43571155090000        0.34485093440000
H           -2.61705630250000        4.84608971630000        0.20540845960000
H           -0.92541221650000        4.17159579850000        0.30691158210000
H           -3.55571133500000        2.63750178520000        0.00803247010000
H           -3.49083238520000        0.34662555880000       -0.32887736330000
H           -3.57302616790000       -2.01535548320000       -0.58267005310000
H           -2.42261571270000       -2.85560652460000        0.47074967090000
H           -2.08920988500000       -2.72074645320000       -1.24767597430000
H            2.14338891860000        0.91169510960000        1.28912517790000
H            0.18916374370000        2.33547133980000        0.54638449240000
$end

$rem
BASIS = 6-31G*
GUI = 2
METHOD = B3LYP
PRINT_ORBITALS false
MOLDEN_FORMAT false
$end
--------------------------------------------------------------
 ----------------------------------------------------------------
             Standard Nuclear Orientation (Angstroms)
    I     Atom           X                Y                Z
 ----------------------------------------------------------------
    1      C       3.6201773765    -2.4026896689    -0.1937148873
    2      C       3.4222689442    -1.0916096557    -0.1324329158
    3      C       2.1397258871    -0.4065704527    -0.0149431872
    4      C       2.1131474108     0.9877216024    -0.0954289710
    5      C       0.9358221467     1.7060065938     0.0204466909
    6      C       0.8980454670     3.2005534527    -0.0402986104
    7      C      -0.2425750906     0.9916330485     0.2076727847
    8      F      -1.3865288408     1.6870209623     0.3764065251
    9      C      -0.2703566243    -0.3992587302     0.2763366555
   10      C      -1.5071500282    -1.1550255487     0.4680938870
   11      C      -2.6792766624    -0.8788529452    -0.0799338705
   12      F      -2.9603218366     0.0884462126    -0.9356788310
   13      F      -3.7705797889    -1.6123778508     0.1275744550
   14      C       0.9387211399    -1.0810572858     0.1805075506
   15      H       4.6110399603    -2.8131533138    -0.2834359574
   16      H       2.8167555892    -3.1182323599    -0.1635401099
   17      H       4.2786150542    -0.4305035150    -0.1816282038
   18      H       3.0386136321     1.5250615229    -0.2448204059
   19      H       1.8908975677     3.6063528541    -0.2117262904
   20      H       0.5049606545     3.6042193171     0.8920551478
   21      H       0.2358957837     3.5267343600    -0.8411308086
   22      H      -1.4577047088    -2.0366947506     1.0888583956
   23      H       0.9265008641    -2.1566904929     0.2528181324
 ----------------------------------------------------------------
 Molecular Point Group                 C1    NOp =  1
 Largest Abelian Subgroup              C1    NOp =  1
 Nuclear Repulsion Energy =         857.33569004 hartrees
 There are       51 alpha and       51 beta electrons
 Requested basis set is 6-31G(d)
 There are 74 shells and 228 basis functions

 Total QAlloc Memory Limit   8000 MB
 Mega-Array Size       188 MB
 MEM_STATIC part       192 MB
 A cutoff of  1.0D-08 yielded   1800 shell pairs
 There are     18484 function pairs
 Smallest overlap matrix eigenvalue = 3.24E-04

 Scale SEOQF with 1.000000e-01/1.000000e-01/1.000000e+00

 Standard Electronic Orientation quadrupole field applied
 Nucleus-field energy     =     0.0000000234 hartrees
 Guess from superposition of atomic densities
 Warning:  Energy on first SCF cycle will be non-variational
 SAD guess density has 102.000000 electrons

 -----------------------------------------------------------------------
  General SCF calculation program by
  Eric Jon Sundstrom, Paul Horn, Yuezhi Mao, Dmitri Zuev, Alec White,
  David Stuck, Shaama M.S., Shane Yost, Joonho Lee, David Small,
  Daniel Levine, Susi Lehtola, Hugh Burton, Evgeny Epifanovsky,
  Bang C. Huynh
 -----------------------------------------------------------------------
 Exchange:     0.2000 Hartree-Fock + 0.0800 Slater + 0.7200 B88
 Correlation:  0.1900 VWN1RPA + 0.8100 LYP
 Using SG-1 standard quadrature grid
 A restricted SCF calculation will be
 performed using DIIS
 SCF converges when DIIS error is below 1.0e-05
 ---------------------------------------
  Cycle       Energy         DIIS error
 ---------------------------------------
    1    -727.1229760014      5.22e-02  
    2    -723.8365758945      5.91e-03  
    3    -723.6536831515      7.89e-03  
    4    -724.0469010314      1.60e-03  
    5    -724.0633750373      4.58e-04  
    6    -724.0644197829      2.32e-04  
    7    -724.0647784992      4.25e-05  
    8    -724.0647889133      1.57e-05  
    9    -724.0647910371      3.73e-06  Convergence criterion met
 ---------------------------------------
 SCF time:   CPU 55.06s  wall 61.00s 
 SCF   energy in the final basis set =     -724.0647910371
 Total energy in the final basis set =     -724.0647910371
 
 --------------------------------------------------------------
 
                    Orbital Energies (a.u.)
 --------------------------------------------------------------
 
 Alpha MOs
 -- Occupied --
-24.7379 -24.7330 -24.7091 -10.3567 -10.2690 -10.2119 -10.2032 -10.2030
-10.1986 -10.1946 -10.1932 -10.1931 -10.1865 -10.1819  -1.2831  -1.2237
 -1.2191  -0.8789  -0.8183  -0.8019  -0.7599  -0.7299  -0.6968  -0.6480
 -0.6270  -0.6079  -0.5708  -0.5640  -0.5463  -0.5202  -0.5158  -0.4995
 -0.4755  -0.4656  -0.4446  -0.4397  -0.4367  -0.4325  -0.4223  -0.4177
 -0.4093  -0.4083  -0.4001  -0.3762  -0.3689  -0.3537  -0.3440  -0.3076
 -0.2773  -0.2343  -0.2192
 -- Virtual --
 -0.0320  -0.0217   0.0385   0.0714   0.0945   0.1049   0.1105   0.1230
  0.1354   0.1492   0.1579   0.1680   0.1858   0.1971   0.2084   0.2130
  0.2218   0.2481   0.2826   0.3159   0.3374   0.3437   0.3652   0.4107
  0.4174   0.4309   0.4663   0.4767   0.4935   0.5110   0.5195   0.5282
  0.5391   0.5476   0.5579   0.5602   0.5732   0.5781   0.5815   0.6040
  0.6142   0.6207   0.6324   0.6341   0.6607   0.6876   0.6899   0.6941
  0.7156   0.7537   0.7647   0.7804   0.8060   0.8176   0.8282   0.8457
  0.8670   0.8780   0.8818   0.8903   0.9223   0.9248   0.9487   0.9525
  0.9651   0.9992   1.0025   1.0100   1.0373   1.0601   1.0781   1.1119
  1.1323   1.1599   1.1865   1.1962   1.2080   1.2326   1.2511   1.2559
  1.2620   1.3030   1.3058   1.3309   1.3591   1.3654   1.3910   1.4049
  1.4245   1.4471   1.4525   1.4611   1.4813   1.4949   1.5118   1.5276
  1.5505   1.5731   1.6537   1.6742   1.7075   1.7477   1.7572   1.7728
  1.7935   1.8068   1.8152   1.8269   1.8447   1.8516   1.8601   1.8659
  1.8890   1.9037   1.9307   1.9482   1.9678   1.9830   1.9968   2.0038
  2.0178   2.0319   2.0717   2.0833   2.1040   2.1225   2.1322   2.1688
  2.2018   2.2188   2.2308   2.2475   2.2618   2.3088   2.3110   2.3273
  2.3428   2.3649   2.3798   2.4099   2.4186   2.5004   2.5224   2.5317
  2.5699   2.6020   2.6237   2.6617   2.6860   2.6905   2.7245   2.7926
  2.8458   2.8974   2.8995   2.9595   3.0093   3.0637   3.1253   3.1389
  3.1828   3.3304   3.4751   4.0860   4.0907   4.0973   4.1159   4.1482
  4.2227   4.2515   4.2702   4.4516   4.4993   4.7254   4.7648   5.2655
  5.6647
 --------------------------------------------------------------
 
          Ground-State Mulliken Net Atomic Charges

     Atom                 Charge (a.u.)
  ----------------------------------------
      1 C                    -0.353645
      2 C                    -0.115285
      3 C                     0.193016
      4 C                    -0.260087
      5 C                     0.108383
      6 C                    -0.521869
      7 C                     0.260104
      8 F                    -0.287204
      9 C                     0.113506
     10 C                    -0.319244
     11 C                     0.569353
     12 F                    -0.229411
     13 F                    -0.247572
     14 C                    -0.254699
     15 H                     0.145136
     16 H                     0.142550
     17 H                     0.127796
     18 H                     0.127193
     19 H                     0.155867
     20 H                     0.172628
     21 H                     0.173214
     22 H                     0.169027
     23 H                     0.131245
  ----------------------------------------
  Sum of atomic charges =     0.000000

 -----------------------------------------------------------------
                    Cartesian Multipole Moments
 -----------------------------------------------------------------
    Charge (ESU x 10^10)
                 0.0000
    Dipole Moment (Debye)
         X       1.8007      Y      -0.1364      Z       0.2344
       Tot       1.8211
    Quadrupole Moments (Debye-Ang)
        XX     -78.3171     XY       1.9213     YY     -71.6727
        XZ      -1.1340     YZ      -1.1863     ZZ     -80.2307
    Octopole Moments (Debye-Ang^2)
       XXX     -25.7293    XXY       5.3548    XYY      -9.4533
       YYY       1.3747    XXZ      -3.4110    XYZ       0.8175
       YYZ      -0.1034    XZZ     -29.6660    YZZ       3.2227
       ZZZ      -3.3002
    Hexadecapole Moments (Debye-Ang^3)
      XXXX   -2415.2099   XXXY      -4.2132   XXYY    -612.8139
      XYYY      18.7888   YYYY   -1254.6269   XXXZ      -4.7869
      XXYZ       3.8959   XYYZ       0.7170   YYYZ      -3.4448
      XXZZ    -457.5923   XYZZ      19.4421   YYZZ    -240.6366
      XZZZ      18.0153   YZZZ       1.0770   ZZZZ    -130.6487
 -----------------------------------------------------------------
 Total job time:  63.64s(wall), 55.50s(cpu) 
 Fri Aug 12 12:44:26 2022

        *************************************************************
        *                                                           *
        *  Thank you very much for using Q-Chem.  Have a nice day.  *
        *                                                           *
        *************************************************************


