24
 energy: -42.127629882967 gnorm: 0.000129982477 xtb: 6.5.0 (unknown)
C           -3.59270725060000       -2.82656162780000       -0.29402499210000
C           -3.55459521940000       -1.52267174100000       -0.04579048210000
C           -2.37545252290000       -0.66747087480000       -0.03655794730000
C           -2.51658455190000        0.68410475490000        0.27598251750000
C           -1.43399172020000        1.54146101690000        0.28083318020000
C           -0.15742982050000        1.07303455090000       -0.01211166570000
O            0.94914520030000        1.85229945760000       -0.08805606870000
C            0.83841437290000        3.22625788550000        0.19235046200000
C            0.01349044250000       -0.29590050490000       -0.29893939020000
C            1.32696515270000       -0.86410230410000       -0.59771966110000
C            2.47079261720000       -0.56177043960000       -0.00782577950000
F            2.67401107820000        0.27253324120000        0.99973534210000
F            3.63194918290000       -1.13297210770000       -0.33530484700000
C           -1.09372929480000       -1.12993222830000       -0.32823110630000
H           -4.52101752130000       -3.37103047550000       -0.27639464660000
H           -2.71391648620000       -3.40452179970000       -0.52220394900000
H           -4.48038836460000       -1.00713100020000        0.17976274120000
H           -3.49583088170000        1.07595277500000        0.51089629480000
H           -1.59330160440000        2.58275219930000        0.51204643810000
H            1.84484610500000        3.62681994620000        0.08392177540000
H            0.49012324070000        3.40005622670000        1.21494446870000
H            0.16939400920000        3.72841242070000       -0.51413368310000
H            1.36988287450000       -1.63502843250000       -1.35299619480000
H           -0.94036632450000       -2.16993099720000       -0.57030231000000
