
Running Job 1 of 1 fragments/C085/conf-4/spe_input.inp
qchem fragments/C085/conf-4/spe_input.inp_147657.0 /gpfs/fs0/scratch/a/aspuru/rhickman/descriptor_computation/qchem147657/ 0
/scinet/niagara/software/commercial/qc52/exe/qcprog.exe_s fragments/C085/conf-4/spe_input.inp_147657.0 /gpfs/fs0/scratch/a/aspuru/rhickman/descriptor_computation/qchem147657/
                  Welcome to Q-Chem
     A Quantum Leap Into The Future Of Chemistry


 Q-Chem 5.2, Q-Chem, Inc., Pleasanton, CA (2019)

 License issued to: SRG Alan Aspuru-Guzik, University of Toronto

 Yihan Shao,  Zhengting Gan,  E. Epifanovsky,  A. T. B. Gilbert,  M. Wormit,  
 J. Kussmann,  A. W. Lange,  A. Behn,  Jia Deng,  Xintian Feng,  D. Ghosh,  
 M. Goldey,  P. R. Horn,  L. D. Jacobson,  I. Kaliman,  T. Kus,  A. Landau,  
 Jie Liu,  E. I. Proynov,  R. M. Richard,  R. P. Steele,  E. J. Sundstrom,  
 H. L. Woodcock III,  P. M. Zimmerman,  D. Zuev,  B. Albrecht,  E. Alguire,  
 S. A. Baeppler,  D. Barton,  Z. Benda,  Y. A. Bernard,  E. J. Berquist,  
 K. B. Bravaya,  H. Burton,  D. Casanova,  Chun-Min Chang,  Yunqing Chen,  
 A. Chien,  K. D. Closser,  M. P. Coons,  S. Coriani,  S. Dasgupta,  
 A. L. Dempwolff,  M. Diedenhofen,  Hainam Do,  R. G. Edgar,  Po-Tung Fang,  
 S. Faraji,  S. Fatehi,  Qingguo Feng,  K. D. Fenk,  J. Fosso-Tande,  
 J. Gayvert,  Qinghui Ge,  A. Ghysels,  G. Gidofalvi,  J. Gomes,  
 J. Gonthier,  A. Gunina,  D. Hait,  M. W. D. Hanson-Heine,  
 P. H. P. Harbach,  A. W. Hauser,  M. F. Herbst,  J. E. Herr,  
 E. G. Hohenstein,  Z. C. Holden,  Kerwin Hui,  B. C. Huynh,  T.-C. Jagau,  
 Hyunjun Ji,  B. Kaduk,  K. Khistyaev,  Jaehoon Kim,  P. Klunzinger,  K. Koh,  
 D. Kosenkov,  L. Koulias,  T. Kowalczyk,  C. M. Krauter,  A. Kunitsa,  
 Ka Un Lao,  A. Laurent,  K. V. Lawler,  Joonho Lee,  D. Lefrancois,  
 S. Lehtola,  D. S. Levine,  Yi-Pei Li,  You-Sheng Lin,  Fenglai Liu,  
 E. Livshits,  A. Luenser,  P. Manohar,  E. Mansoor,  S. F. Manzer,  
 Shan-Ping Mao,  Yuezhi Mao,  N. Mardirossian,  A. V. Marenich,  
 T. Markovich,  L. A. Martinez-Martinez,  S. A. Maurer,  N. J. Mayhall,  
 S. C. McKenzie,  J.-M. Mewes,  P. Morgante,  A. F. Morrison,  
 J. W. Mullinax,  K. Nanda,  T. S. Nguyen-Beck,  R. Olivares-Amaya,  
 J. A. Parkhill,  Zheng Pei,  T. M. Perrine,  F. Plasser,  P. Pokhilko,  
 S. Prager,  A. Prociuk,  E. Ramos,  D. R. Rehn,  F. Rob,  M. Scheurer,  
 M. Schneider,  N. Sergueev,  S. M. Sharada,  S. Sharma,  D. W. Small,  
 T. Stauch,  T. Stein,  Yu-Chuan Su,  A. J. W. Thom,  A. Tkatchenko,  
 T. Tsuchimochi,  N. M. Tubman,  L. Vogt,  M. L. Vidal,  O. Vydrov,  
 M. A. Watson,  J. Wenzel,  M. de Wergifosse,  T. A. Wesolowski,  A. White,  
 J. Witte,  A. Yamada,  Jun Yang,  K. Yao,  S. Yeganeh,  S. R. Yost,  
 Zhi-Qiang You,  A. Zech,  Igor Ying Zhang,  Xing Zhang,  Yan Zhao,  
 Ying Zhu,  B. R. Brooks,  G. K. L. Chan,  C. J. Cramer,  M. S. Gordon,  
 W. J. Hehre,  A. Klamt,  M. W. Schmidt,  C. D. Sherrill,  D. G. Truhlar,  
 A. Aspuru-Guzik,  R. Baer,  A. T. Bell,  N. A. Besley,  Jeng-Da Chai,  
 A. E. DePrince, III,  R. A. DiStasio Jr.,  A. Dreuw,  B. D. Dunietz,  
 T. R. Furlani,  Chao-Ping Hsu,  Yousung Jung,  Jing Kong,  D. S. Lambrecht,  
 WanZhen Liang,  C. Ochsenfeld,  V. A. Rassolov,  L. V. Slipchenko,  
 J. E. Subotnik,  T. Van Voorhis,  J. M. Herbert,  A. I. Krylov,  
 P. M. W. Gill,  M. Head-Gordon

 Contributors to earlier versions of Q-Chem not listed above: 
 R. D. Adamson,  B. Austin,  J. Baker,  G. J. O. Beran,  K. Brandhorst,  
 S. T. Brown,  E. F. C. Byrd,  A. K. Chakraborty,  C.-L. Cheng,  
 Siu Hung Chien,  D. M. Chipman,  D. L. Crittenden,  H. Dachsel,  
 R. J. Doerksen,  A. D. Dutoi,  L. Fusti-Molnar,  W. A. Goddard III,  
 A. Golubeva-Zadorozhnaya,  S. R. Gwaltney,  G. Hawkins,  A. Heyden,  
 S. Hirata,  G. Kedziora,  F. J. Keil,  C. Kelley,  Jihan Kim,  R. A. King,  
 R. Z. Khaliullin,  P. P. Korambath,  W. Kurlancheek,  A. M. Lee,  M. S. Lee,  
 S. V. Levchenko,  Ching Yeh Lin,  D. Liotard,  R. C. Lochan,  I. Lotan,  
 P. E. Maslen,  N. Nair,  D. P. O'Neill,  D. Neuhauser,  E. Neuscamman,  
 C. M. Oana,  R. Olson,  B. Peters,  R. Peverati,  P. A. Pieniazek,  
 Y. M. Rhee,  J. Ritchie,  M. A. Rohrdanz,  E. Rosta,  N. J. Russ,  
 H. F. Schaefer III,  N. E. Schultz,  N. Shenvi,  A. C. Simmonett,  A. Sodt,  
 D. Stuck,  K. S. Thanthiriwatte,  V. Vanovschi,  Tao Wang,  A. Warshel,  
 C. F. Williams,  Q. Wu,  X. Xu,  W. Zhang

 Please cite Q-Chem as follows:
 Y. Shao et al., Mol. Phys. 113, 184-215 (2015)
 DOI: 10.1080/00268976.2014.952696

 Q-Chem 5.2.1 for Intel X86 EM64T Linux

 Parts of Q-Chem use Armadillo 8.300.2 (Tropical Shenanigans).
 http://arma.sourceforge.net/

 Q-Chem begins on Fri Feb  4 11:52:26 2022  

Host: 
0

     Scratch files written to /gpfs/fs0/scratch/a/aspuru/rhickman/descriptor_computation/qchem147657//
 Jul1719 |scratch|qcdevops|jenkins|workspace|build_RNUM -1
Processing $rem in /scinet/niagara/software/commercial/qc52/config/preferences:
	 MEM_TOTAL  4000 
NAlpha2: 168
NElect   168
Mult     1

Checking the input file for inconsistencies... 	...done.

--------------------------------------------------------------
User input:
--------------------------------------------------------------
$molecule
0 1
C         5.62791410370000    4.05926830310000    0.89387067750000
C         4.30455995250000    4.19631258580000    0.85471833110000
C         3.39424765350000    3.29032233030000    0.20775705730000
C         3.63952637310000    2.12646737340000   -0.47380905170000
C         2.48707970350000    1.50319285500000   -0.98762964050000
C         2.56073765440000    0.20157216350000   -1.72370261840000
C         2.61015755580000   -0.99030666520000   -0.75645455130000
C         1.30597068740000   -1.16712822800000    0.01515682450000
C         1.35516719040000   -2.36971834410000    0.95448979010000
C         0.10599568350000   -2.49909631860000    1.82692844130000
C        -1.16322736930000   -2.78348399270000    1.02638952750000
C        -2.36459602530000   -3.02718677300000    1.93705108910000
C        -3.63774682480000   -3.38664523640000    1.16968035420000
C        -4.17420863270000   -2.23289657780000    0.32337217950000
C        -5.56131573670000   -2.50772325240000   -0.25826055960000
C        -5.57054170140000   -3.61957202080000   -1.30536690940000
C        -6.94578961470000   -3.77933510590000   -1.94222832590000
C         1.33285973820000    2.19820474220000   -0.69019221110000
C        -0.02130589180000    1.87293433300000   -1.04376763230000
C        -1.09731815950000    2.54304650190000   -0.63947121420000
S         1.69150965710000    3.63389139760000    0.22753135020000
H         6.24975740840000    4.77878249190000    1.39628933460000
H         6.13257261640000    3.23059416260000    0.42833362120000
H         3.83760696690000    5.04674478120000    1.33475125270000
H         4.62706301070000    1.72278667340000   -0.61050683980000
H         3.46834244530000    0.19832275920000   -2.33209883330000
H         1.70748391760000    0.08821269440000   -2.39388208030000
H         3.43333070980000   -0.84559967270000   -0.05285962620000
H         2.81554258810000   -1.89824110180000   -1.32869316140000
H         0.49036408850000   -1.29634183440000   -0.69810459420000
H         1.10220980890000   -0.26587014730000    0.59722781590000
H         2.22775302740000   -2.27248390580000    1.60555285740000
H         1.48221660080000   -3.28310912920000    0.36790181380000
H        -0.02904135360000   -1.57856320590000    2.39978958920000
H         0.26213707100000   -3.31168964850000    2.54127234600000
H        -1.00375738310000   -3.66371719960000    0.39853462990000
H        -1.37493031810000   -1.93654531210000    0.37425257840000
H        -2.54566559340000   -2.13444202250000    2.54061204080000
H        -2.12675653340000   -3.84472203390000    2.62278626110000
H        -4.40732166650000   -3.67859880450000    1.88886347040000
H        -3.43427320480000   -4.24913226340000    0.53250765910000
H        -3.48447066640000   -2.02323054260000   -0.49613979290000
H        -4.22895434390000   -1.33811777930000    0.94881410960000
H        -5.93331519060000   -1.59016631740000   -0.72182866390000
H        -6.24819924970000   -2.76867610130000    0.55054173120000
H        -5.28029287840000   -4.56400999340000   -0.84243914070000
H        -4.83674329570000   -3.38851451210000   -2.08128942660000
H        -7.68959945190000   -4.02200657270000   -1.18623557940000
H        -6.93623055870000   -4.57652756550000   -2.68213473310000
H        -7.24866312040000   -2.85768073560000   -2.43493858880000
H        -0.13654679350000    1.00917916040000   -1.68459144160000
H        -1.01601983080000    3.40284258930000    0.00495382940000
H        -2.08897863900000    2.25260581580000   -0.93793956020000
$end

$rem
BASIS = 6-31G*
GUI = 2
METHOD = B3LYP
PRINT_ORBITALS false
MOLDEN_FORMAT false
--------------------------------------------------------------
 ----------------------------------------------------------------
             Standard Nuclear Orientation (Angstroms)
    I     Atom           X                Y                Z
 ----------------------------------------------------------------
    1      C       7.1050445961    -0.3875458431     0.6070304109
    2      C       6.1345196670     0.4675392501     0.9208633227
    3      C       4.8446969812     0.5291311367     0.2879260483
    4      C       4.3168481010    -0.2347590304    -0.7205875828
    5      C       3.0092001578     0.1258767482    -1.0955739038
    6      C       2.2599802098    -0.6258372930    -2.1515288350
    7      C       1.6031112517    -1.8920397682    -1.5824587549
    8      C       0.4792467450    -1.5730132023    -0.6012839545
    9      C      -0.1850270330    -2.8371089314    -0.0611061699
   10      C      -1.2337307898    -2.5493886758     1.0139542000
   11      C      -2.4366200459    -1.7672179902     0.4905685718
   12      C      -3.5155289404    -1.6054394842     1.5591028411
   13      C      -4.7661265927    -0.8891500329     1.0473254246
   14      C      -4.5164945666     0.5769760319     0.6961517090
   15      C      -5.8015437831     1.3536711107     0.4075590410
   16      C      -6.5100010806     0.9016739078    -0.8677884787
   17      C      -7.7173985766     1.7776618611    -1.1796537098
   18      C       2.5200297742     1.1836543174    -0.3569581540
   19      C       1.2366771549     1.8225150190    -0.4541385513
   20      C       0.7974603658     2.7797333339     0.3589604726
   21      S       3.6990798601     1.7294049358     0.8023690773
   22      H       8.0486778722    -0.3759641632     1.1230113945
   23      H       6.9922036916    -1.1226764961    -0.1707585384
   24      H       6.2909097515     1.1927224231     1.7091292186
   25      H       4.8541500425    -1.0390347638    -1.1910343615
   26      H       2.9637111233    -0.9168088084    -2.9351112161
   27      H       1.4949516743     0.0055276342    -2.6055580062
   28      H       2.3640869020    -2.4951244772    -1.0816545343
   29      H       1.2014230321    -2.4812701470    -2.4103712589
   30      H      -0.2665843850    -0.9590911674    -1.1087165039
   31      H       0.8784440885    -0.9932086401     0.2336168858
   32      H       0.5851041181    -3.4844839141     0.3661494193
   33      H      -0.6527016771    -3.3815691372    -0.8853350486
   34      H      -0.7684473007    -1.9902077593     1.8291928676
   35      H      -1.5827271862    -3.5006500297     1.4241719699
   36      H      -2.8595236126    -2.2901686059    -0.3708942389
   37      H      -2.1093629439    -0.7815267614     0.1608392006
   38      H      -3.1028708356    -1.0523679276     2.4063869389
   39      H      -3.8033011557    -2.5957423775     1.9219410756
   40      H      -5.5359223583    -0.9358540908     1.8218832907
   41      H      -5.1435331192    -1.4200352090     0.1715402496
   42      H      -3.8626893184     0.6425779317    -0.1753603503
   43      H      -4.0015571767     1.0532386225     1.5344936609
   44      H      -5.5540050519     2.4141240936     0.3108442147
   45      H      -6.4844229697     1.2519237145     1.2545478127
   46      H      -6.8388538713    -0.1330507208    -0.7595740274
   47      H      -5.8070430402     0.9430858574    -1.7032754440
   48      H      -8.4358809316     1.7402825994    -0.3635327361
   49      H      -8.2122088937     1.4406630657    -2.0877634205
   50      H      -7.4131742401     2.8130462205    -1.3188274265
   51      H       0.6049274559     1.4698429247    -1.2582052960
   52      H       1.3999128425     3.1470931724     1.1733560334
   53      H      -0.1750318635     3.2226331712     0.2367792533
 ----------------------------------------------------------------
 Molecular Point Group                 C1    NOp =  1
 Largest Abelian Subgroup              C1    NOp =  1
 Nuclear Repulsion Energy =        1722.42422294 hartrees
 There are       84 alpha and       84 beta electrons
 Requested basis set is 6-31G(d)
 There are 149 shells and 383 basis functions

 Total QAlloc Memory Limit   4000 MB
 Mega-Array Size       188 MB
 MEM_STATIC part       192 MB
 A cutoff of  1.0D-08 yielded   4812 shell pairs
 There are     33139 function pairs
 Smallest overlap matrix eigenvalue = 6.94E-04

 Scale SEOQF with 1.000000e-02/1.000000e-01/1.000000e-01

 Standard Electronic Orientation quadrupole field applied
 Nucleus-field energy     =     0.0000000228 hartrees
 Guess from superposition of atomic densities
 Warning:  Energy on first SCF cycle will be non-variational
 SAD guess density has 168.000000 electrons

 -----------------------------------------------------------------------
  General SCF calculation program by
  Eric Jon Sundstrom, Paul Horn, Yuezhi Mao, Dmitri Zuev, Alec White,
  David Stuck, Shaama M.S., Shane Yost, Joonho Lee, David Small,
  Daniel Levine, Susi Lehtola, Hugh Burton, Evgeny Epifanovsky,
  Bang C. Huynh
 -----------------------------------------------------------------------
 Exchange:     0.2000 Hartree-Fock + 0.0800 Slater + 0.7200 B88
 Correlation:  0.1900 VWN1RPA + 0.8100 LYP
 Using SG-1 standard quadrature grid
 A restricted SCF calculation will be
 performed using DIIS
 SCF converges when DIIS error is below 1.0e-05
 ---------------------------------------
  Cycle       Energy         DIIS error
 ---------------------------------------
    1   -1183.8122332669      4.02e-02  
    2   -1179.1080139979      4.71e-03  
    3   -1178.9759575374      5.37e-03  
    4   -1179.5447737325      9.02e-04  
    5   -1179.5593676996      4.02e-04  
    6   -1179.5625029473      9.65e-05  
    7   -1179.5626637426      4.02e-05  
    8   -1179.5626929926      1.31e-05  
    9   -1179.5626960682      2.94e-06  Convergence criterion met
 ---------------------------------------
 SCF time:   CPU 116.30s  wall 117.00s 
 SCF   energy in the final basis set =    -1179.5626960682
 Total energy in the final basis set =    -1179.5626960682
 
 --------------------------------------------------------------
 
                    Orbital Energies (a.u.)
 --------------------------------------------------------------
 
 Alpha MOs
 -- Occupied --
-88.8990 -10.2164 -10.2119 -10.1979 -10.1947 -10.1929 -10.1875 -10.1838
-10.1823 -10.1790 -10.1781 -10.1719 -10.1706 -10.1700 -10.1700 -10.1694
-10.1692 -10.1691 -10.1690 -10.1684 -10.1658  -7.9610  -5.9249  -5.9215
 -5.9178  -0.8890  -0.8171  -0.8095  -0.8013  -0.7884  -0.7722  -0.7615
 -0.7371  -0.7143  -0.7005  -0.6816  -0.6482  -0.6236  -0.6165  -0.5971
 -0.5820  -0.5742  -0.5635  -0.5528  -0.5359  -0.5243  -0.4901  -0.4728
 -0.4681  -0.4600  -0.4569  -0.4522  -0.4444  -0.4355  -0.4264  -0.4219
 -0.4163  -0.4120  -0.4033  -0.3973  -0.3876  -0.3853  -0.3780  -0.3753
 -0.3657  -0.3619  -0.3582  -0.3554  -0.3497  -0.3449  -0.3362  -0.3327
 -0.3259  -0.3222  -0.3211  -0.3193  -0.3140  -0.3127  -0.3054  -0.3007
 -0.2923  -0.2676  -0.2435  -0.1952
 -- Virtual --
 -0.0501   0.0107   0.0282   0.0779   0.0846   0.0948   0.0990   0.0997
  0.1065   0.1101   0.1129   0.1155   0.1196   0.1271   0.1354   0.1360
  0.1380   0.1483   0.1567   0.1596   0.1620   0.1692   0.1745   0.1781
  0.1802   0.1835   0.1854   0.1914   0.1957   0.1989   0.1998   0.2017
  0.2057   0.2100   0.2177   0.2217   0.2242   0.2302   0.2383   0.2454
  0.2541   0.2591   0.2640   0.2680   0.2717   0.2787   0.2830   0.2902
  0.2955   0.3039   0.3133   0.3192   0.3264   0.3297   0.3425   0.3686
  0.3732   0.4071   0.4501   0.4703   0.4875   0.4913   0.4941   0.5023
  0.5065   0.5147   0.5180   0.5279   0.5333   0.5419   0.5441   0.5475
  0.5541   0.5586   0.5612   0.5710   0.5768   0.5905   0.5946   0.5970
  0.6126   0.6215   0.6223   0.6299   0.6419   0.6445   0.6524   0.6623
  0.6693   0.6745   0.6792   0.6818   0.6855   0.6880   0.6934   0.7044
  0.7093   0.7251   0.7494   0.7584   0.7766   0.7815   0.7871   0.8037
  0.8080   0.8168   0.8206   0.8271   0.8333   0.8457   0.8467   0.8592
  0.8612   0.8625   0.8685   0.8717   0.8727   0.8797   0.8854   0.8900
  0.8933   0.8952   0.9082   0.9156   0.9187   0.9237   0.9332   0.9367
  0.9411   0.9444   0.9464   0.9483   0.9510   0.9584   0.9650   0.9679
  0.9712   0.9734   0.9779   0.9836   0.9902   0.9923   0.9972   1.0027
  1.0106   1.0223   1.0306   1.0463   1.0585   1.0690   1.0814   1.0937
  1.1044   1.1204   1.1255   1.1461   1.1722   1.1876   1.2030   1.2236
  1.2422   1.2517   1.2773   1.2902   1.3026   1.3449   1.3557   1.3723
  1.3864   1.4079   1.4165   1.4278   1.4386   1.4495   1.4589   1.4647
  1.4823   1.4949   1.5106   1.5397   1.5671   1.5784   1.6058   1.6149
  1.6225   1.6361   1.6529   1.6659   1.6977   1.7095   1.7361   1.7441
  1.7555   1.7779   1.7915   1.8037   1.8152   1.8336   1.8537   1.8602
  1.8741   1.8858   1.8994   1.9047   1.9208   1.9332   1.9424   1.9462
  1.9561   1.9639   1.9726   1.9776   1.9930   1.9978   2.0029   2.0074
  2.0177   2.0255   2.0273   2.0495   2.0566   2.0675   2.0733   2.0825
  2.0872   2.1079   2.1142   2.1532   2.1595   2.1802   2.2027   2.2098
  2.2227   2.2466   2.2486   2.2609   2.2711   2.2786   2.2979   2.3155
  2.3238   2.3293   2.3550   2.3636   2.3766   2.3867   2.4065   2.4120
  2.4246   2.4365   2.4419   2.4534   2.4640   2.4793   2.5035   2.5119
  2.5263   2.5527   2.5741   2.6016   2.6106   2.6277   2.6388   2.6646
  2.6741   2.6992   2.7353   2.7443   2.7622   2.7804   2.7928   2.8495
  2.8691   2.9085   2.9605   3.0327   3.1107   3.2094   3.9733   4.0988
  4.1191   4.1293   4.1479   4.1616   4.1796   4.2101   4.2376   4.2667
  4.3229   4.3564   4.3815   4.4126   4.4460   4.4746   4.5255   4.5367
  4.5753   4.6155   4.6512
 --------------------------------------------------------------
 
          Ground-State Mulliken Net Atomic Charges

     Atom                 Charge (a.u.)
  ----------------------------------------
      1 C                    -0.341327
      2 C                    -0.088366
      3 C                    -0.126552
      4 C                    -0.160648
      5 C                     0.158303
      6 C                    -0.348492
      7 C                    -0.250866
      8 C                    -0.262377
      9 C                    -0.255019
     10 C                    -0.254038
     11 C                    -0.259641
     12 C                    -0.254674
     13 C                    -0.255813
     14 C                    -0.254889
     15 C                    -0.247798
     16 C                    -0.251147
     17 C                    -0.440453
     18 C                    -0.211014
     19 C                    -0.049593
     20 C                    -0.379910
     21 S                     0.230168
     22 H                     0.146867
     23 H                     0.142424
     24 H                     0.137488
     25 H                     0.131983
     26 H                     0.143890
     27 H                     0.143244
     28 H                     0.136356
     29 H                     0.131019
     30 H                     0.129235
     31 H                     0.151206
     32 H                     0.126795
     33 H                     0.124409
     34 H                     0.130511
     35 H                     0.124910
     36 H                     0.123227
     37 H                     0.142398
     38 H                     0.127675
     39 H                     0.124640
     40 H                     0.124571
     41 H                     0.131431
     42 H                     0.130199
     43 H                     0.125501
     44 H                     0.123952
     45 H                     0.126260
     46 H                     0.136917
     47 H                     0.127852
     48 H                     0.141760
     49 H                     0.140071
     50 H                     0.141000
     51 H                     0.136891
     52 H                     0.155333
     53 H                     0.144134
  ----------------------------------------
  Sum of atomic charges =     0.000000

 -----------------------------------------------------------------
                    Cartesian Multipole Moments
 -----------------------------------------------------------------
    Charge (ESU x 10^10)
                -0.0000
    Dipole Moment (Debye)
         X      -0.0903      Y      -0.8989      Z      -0.6325
       Tot       1.1028
    Quadrupole Moments (Debye-Ang)
        XX    -136.2092     XY      -4.3823     YY    -140.4589
        XZ       0.6455     YZ       3.6500     ZZ    -138.0666
    Octopole Moments (Debye-Ang^2)
       XXX      66.6564    XXY     -32.6349    XYY      -6.4986
       YYY      -3.5379    XXZ      20.1128    XYZ      14.2419
       YYZ       4.3706    XZZ       2.5848    YZZ       0.5099
       ZZZ      -2.7835
    Hexadecapole Moments (Debye-Ang^3)
      XXXX  -14791.5582   XXXY     -43.8033   XXYY   -2958.5501
      XYYY     -16.7983   YYYY   -2383.2481   XXXZ     107.7945
      XXYZ      97.0188   XYYZ      11.3086   YYYZ      22.2547
      XXZZ   -2667.2532   XYZZ       5.9968   YYZZ    -571.2366
      XZZZ       3.9647   YZZZ      17.5752   ZZZZ   -1059.9686
 -----------------------------------------------------------------
Archival summary:
1\1\nia0001.scinet.local\SP\ProcedureUnspecified\6-31G*\12032\rhickman\FriFeb411:54:232022FriFeb411:54:232022\0\\#,ProcedureUnspecified,6-31G*,\\0,1\S\C,1,1.73717\C,2,1.37086,1,110.423\H,3,1.07558,2,123.1,1,179.961,0\C,3,1.40734,2,114.268,1,0.22641,0\C,5,1.37976,3,112.534,2,-0.277059,0\C,6,1.43686,5,128.412,3,179.983,0\H,7,1.08167,6,115.275,5,-4.76166,0\C,7,1.33053,6,124.986,5,174.944,0\H,9,1.07556,7,121.689,6,179.95,0\H,9,1.07756,7,121.505,6,-0.155983,0\C,2,1.43807,1,119.389,3,179.761,0\H,12,1.08246,2,114.923,1,0.910126,0\C,12,1.33101,2,125.291,1,-178.925,0\H,14,1.07555,12,121.312,2,179.9,0\H,14,1.07615,12,122.196,2,-0.0429216,0\C,5,1.49715,3,121.618,2,-178.112,0\H,17,1.09089,5,110.726,3,-155.594,0\H,17,1.09266,5,108.494,3,-37.3623,0\C,17,1.53577,5,111.51,3,82.3978,0\H,20,1.09252,17,109.09,5,-54.1723,0\H,20,1.0927,17,108.728,5,-171.489,0\C,20,1.52563,17,112.394,5,67.4667,0\H,23,1.09117,20,108.789,17,57.7911,0\H,23,1.09206,20,109.477,17,-59.8491,0\C,23,1.52676,20,112.019,17,178.921,0\H,26,1.09294,23,109.379,20,-62.9019,0\H,26,1.09304,23,108.791,20,54.2907,0\C,26,1.52916,23,113.038,20,175.075,0\H,29,1.09261,26,109.197,23,-56.9703,0\H,29,1.09315,26,108.605,23,-173.962,0\C,29,1.52731,26,113.302,23,64.9847,0\H,32,1.08968,29,109.294,26,-64.059,0\H,32,1.09291,29,109.258,26,54.0284,0\C,32,1.52708,29,111.772,26,175.002,0\H,35,1.09273,32,109.23,29,60.926,0\H,35,1.09324,32,108.799,29,-56.1378,0\C,35,1.52937,32,113.154,29,-177.022,0\H,38,1.09146,35,108.872,32,55.2535,0\H,38,1.09303,35,108.588,32,172.27,0\C,38,1.52812,35,113.121,32,-67.1051,0\H,41,1.09147,38,109.817,35,67.7508,0\H,41,1.09307,38,108.587,35,-49.7733,0\C,41,1.52902,38,113.169,35,-170.464,0\H,44,1.09273,41,109.367,38,54.7947,0\H,44,1.09325,41,108.61,38,171.817,0\C,44,1.52733,41,113.398,38,-67.414,0\H,47,1.0911,44,109.733,41,63.8138,0\H,47,1.09266,44,109.199,41,-54.1413,0\C,47,1.52395,44,111.609,41,-175.168,0\H,50,1.08769,47,110.682,44,-179.796,0\H,50,1.08796,47,110.485,44,-59.7489,0\H,50,1.08809,47,110.587,44,60.0901,0\\\@

 Total job time:  117.08s(wall), 116.72s(cpu) 
 Fri Feb  4 11:54:23 2022

        *************************************************************
        *                                                           *
        *  Thank you very much for using Q-Chem.  Have a nice day.  *
        *                                                           *
        *************************************************************


