24
 energy: -42.113045868265 gnorm: 0.000064810750 xtb: 6.4.1 (23d549d)
C        -4.09950234710000   -0.69237548530000    0.11859009880000
C        -3.18103424220000    0.26532190400000    0.07913267930000
C        -1.73718984820000    0.07635425260000    0.04743183380000
C        -1.10551696610000   -1.16359624690000    0.09245501220000
C         0.27286298130000   -1.32921159520000    0.05626973590000
C         0.78038792130000   -2.69787376340000    0.10316097160000
C         1.98043787210000   -3.14324710690000   -0.24781803210000
C         1.10928448360000   -0.18769383480000   -0.00661787570000
O         2.44259062360000   -0.39673556580000   -0.00330532940000
C         3.35088247630000    0.67884693530000    0.12513869490000
C         0.48385710490000    1.05963464260000   -0.05256648490000
F         1.19633781320000    2.21112047580000   -0.13048218200000
C        -0.89745877360000    1.18523650060000   -0.02896499090000
F        -1.41544522610000    2.42693157370000   -0.08036274590000
H        -5.14830000870000   -0.45332118010000    0.13983054260000
H        -3.85400305600000   -1.74021992860000    0.12967410240000
H        -3.49806087480000    1.29968728540000    0.06564332520000
H        -1.71704619350000   -2.04955700310000    0.15342754920000
H         0.04248248640000   -3.41485735180000    0.44334141730000
H         2.75516759950000   -2.50053429560000   -0.62025649220000
H         2.21626500780000   -4.19202616820000   -0.17676641270000
H         4.33053585780000    0.21148678210000    0.21755663030000
H         3.15029111240000    1.27463983730000    1.01839235270000
H         3.34192671130000    1.32622912490000   -0.75479824820000
