
Running Job 1 of 1 fragments/B002/conf-1/spe_input.inp
qchem fragments/B002/conf-1/spe_input.inp_342191.0 /gpfs/fs0/scratch/a/aspuru/rhickman/descriptor_computation/qchem342191/ 0
/scinet/niagara/software/commercial/qc52/exe/qcprog.exe_s fragments/B002/conf-1/spe_input.inp_342191.0 /gpfs/fs0/scratch/a/aspuru/rhickman/descriptor_computation/qchem342191/
                  Welcome to Q-Chem
     A Quantum Leap Into The Future Of Chemistry


 Q-Chem 5.2, Q-Chem, Inc., Pleasanton, CA (2019)

 License issued to: SRG Alan Aspuru-Guzik, University of Toronto

 Yihan Shao,  Zhengting Gan,  E. Epifanovsky,  A. T. B. Gilbert,  M. Wormit,  
 J. Kussmann,  A. W. Lange,  A. Behn,  Jia Deng,  Xintian Feng,  D. Ghosh,  
 M. Goldey,  P. R. Horn,  L. D. Jacobson,  I. Kaliman,  T. Kus,  A. Landau,  
 Jie Liu,  E. I. Proynov,  R. M. Richard,  R. P. Steele,  E. J. Sundstrom,  
 H. L. Woodcock III,  P. M. Zimmerman,  D. Zuev,  B. Albrecht,  E. Alguire,  
 S. A. Baeppler,  D. Barton,  Z. Benda,  Y. A. Bernard,  E. J. Berquist,  
 K. B. Bravaya,  H. Burton,  D. Casanova,  Chun-Min Chang,  Yunqing Chen,  
 A. Chien,  K. D. Closser,  M. P. Coons,  S. Coriani,  S. Dasgupta,  
 A. L. Dempwolff,  M. Diedenhofen,  Hainam Do,  R. G. Edgar,  Po-Tung Fang,  
 S. Faraji,  S. Fatehi,  Qingguo Feng,  K. D. Fenk,  J. Fosso-Tande,  
 J. Gayvert,  Qinghui Ge,  A. Ghysels,  G. Gidofalvi,  J. Gomes,  
 J. Gonthier,  A. Gunina,  D. Hait,  M. W. D. Hanson-Heine,  
 P. H. P. Harbach,  A. W. Hauser,  M. F. Herbst,  J. E. Herr,  
 E. G. Hohenstein,  Z. C. Holden,  Kerwin Hui,  B. C. Huynh,  T.-C. Jagau,  
 Hyunjun Ji,  B. Kaduk,  K. Khistyaev,  Jaehoon Kim,  P. Klunzinger,  K. Koh,  
 D. Kosenkov,  L. Koulias,  T. Kowalczyk,  C. M. Krauter,  A. Kunitsa,  
 Ka Un Lao,  A. Laurent,  K. V. Lawler,  Joonho Lee,  D. Lefrancois,  
 S. Lehtola,  D. S. Levine,  Yi-Pei Li,  You-Sheng Lin,  Fenglai Liu,  
 E. Livshits,  A. Luenser,  P. Manohar,  E. Mansoor,  S. F. Manzer,  
 Shan-Ping Mao,  Yuezhi Mao,  N. Mardirossian,  A. V. Marenich,  
 T. Markovich,  L. A. Martinez-Martinez,  S. A. Maurer,  N. J. Mayhall,  
 S. C. McKenzie,  J.-M. Mewes,  P. Morgante,  A. F. Morrison,  
 J. W. Mullinax,  K. Nanda,  T. S. Nguyen-Beck,  R. Olivares-Amaya,  
 J. A. Parkhill,  Zheng Pei,  T. M. Perrine,  F. Plasser,  P. Pokhilko,  
 S. Prager,  A. Prociuk,  E. Ramos,  D. R. Rehn,  F. Rob,  M. Scheurer,  
 M. Schneider,  N. Sergueev,  S. M. Sharada,  S. Sharma,  D. W. Small,  
 T. Stauch,  T. Stein,  Yu-Chuan Su,  A. J. W. Thom,  A. Tkatchenko,  
 T. Tsuchimochi,  N. M. Tubman,  L. Vogt,  M. L. Vidal,  O. Vydrov,  
 M. A. Watson,  J. Wenzel,  M. de Wergifosse,  T. A. Wesolowski,  A. White,  
 J. Witte,  A. Yamada,  Jun Yang,  K. Yao,  S. Yeganeh,  S. R. Yost,  
 Zhi-Qiang You,  A. Zech,  Igor Ying Zhang,  Xing Zhang,  Yan Zhao,  
 Ying Zhu,  B. R. Brooks,  G. K. L. Chan,  C. J. Cramer,  M. S. Gordon,  
 W. J. Hehre,  A. Klamt,  M. W. Schmidt,  C. D. Sherrill,  D. G. Truhlar,  
 A. Aspuru-Guzik,  R. Baer,  A. T. Bell,  N. A. Besley,  Jeng-Da Chai,  
 A. E. DePrince, III,  R. A. DiStasio Jr.,  A. Dreuw,  B. D. Dunietz,  
 T. R. Furlani,  Chao-Ping Hsu,  Yousung Jung,  Jing Kong,  D. S. Lambrecht,  
 WanZhen Liang,  C. Ochsenfeld,  V. A. Rassolov,  L. V. Slipchenko,  
 J. E. Subotnik,  T. Van Voorhis,  J. M. Herbert,  A. I. Krylov,  
 P. M. W. Gill,  M. Head-Gordon

 Contributors to earlier versions of Q-Chem not listed above: 
 R. D. Adamson,  B. Austin,  J. Baker,  G. J. O. Beran,  K. Brandhorst,  
 S. T. Brown,  E. F. C. Byrd,  A. K. Chakraborty,  C.-L. Cheng,  
 Siu Hung Chien,  D. M. Chipman,  D. L. Crittenden,  H. Dachsel,  
 R. J. Doerksen,  A. D. Dutoi,  L. Fusti-Molnar,  W. A. Goddard III,  
 A. Golubeva-Zadorozhnaya,  S. R. Gwaltney,  G. Hawkins,  A. Heyden,  
 S. Hirata,  G. Kedziora,  F. J. Keil,  C. Kelley,  Jihan Kim,  R. A. King,  
 R. Z. Khaliullin,  P. P. Korambath,  W. Kurlancheek,  A. M. Lee,  M. S. Lee,  
 S. V. Levchenko,  Ching Yeh Lin,  D. Liotard,  R. C. Lochan,  I. Lotan,  
 P. E. Maslen,  N. Nair,  D. P. O'Neill,  D. Neuhauser,  E. Neuscamman,  
 C. M. Oana,  R. Olson,  B. Peters,  R. Peverati,  P. A. Pieniazek,  
 Y. M. Rhee,  J. Ritchie,  M. A. Rohrdanz,  E. Rosta,  N. J. Russ,  
 H. F. Schaefer III,  N. E. Schultz,  N. Shenvi,  A. C. Simmonett,  A. Sodt,  
 D. Stuck,  K. S. Thanthiriwatte,  V. Vanovschi,  Tao Wang,  A. Warshel,  
 C. F. Williams,  Q. Wu,  X. Xu,  W. Zhang

 Please cite Q-Chem as follows:
 Y. Shao et al., Mol. Phys. 113, 184-215 (2015)
 DOI: 10.1080/00268976.2014.952696

 Q-Chem 5.2.1 for Intel X86 EM64T Linux

 Parts of Q-Chem use Armadillo 8.300.2 (Tropical Shenanigans).
 http://arma.sourceforge.net/

 Q-Chem begins on Tue Feb  8 15:40:46 2022  

Host: 
0

     Scratch files written to /gpfs/fs0/scratch/a/aspuru/rhickman/descriptor_computation/qchem342191//
 Jul1719 |scratch|qcdevops|jenkins|workspace|build_RNUM -1
Processing $rem in /scinet/niagara/software/commercial/qc52/config/preferences:
	 MEM_TOTAL  4000 
NAlpha2: 88
NElect   88
Mult     1

Checking the input file for inconsistencies... 	...done.

--------------------------------------------------------------
User input:
--------------------------------------------------------------
$molecule
0 1
C        -1.96327387720000   -2.54051693910000    0.41948027430000
C        -2.36092035950000   -1.43770292410000   -0.20257794640000
C        -1.70011487840000   -0.14404229760000   -0.14999426950000
C        -2.43579055630000    1.06919738020000   -0.13276648350000
C        -1.65101695250000    2.17006883900000   -0.03784174780000
S         0.01967178140000    1.78095364840000    0.01118548280000
C        -0.33664341910000    0.08126948370000   -0.09182338440000
C         0.70165116230000   -0.90186236580000   -0.20555366520000
C         1.99808031860000   -0.70107115110000   -0.00025318610000
F         2.57666360980000    0.43097495910000    0.38451788350000
F         2.92268940630000   -1.64754054500000   -0.14711498430000
H        -2.52067624990000   -3.45816070210000    0.34140348650000
H        -1.09280999940000   -2.56272371800000    1.05273839470000
H        -3.28240189460000   -1.44691273660000   -0.77186102030000
H        -3.51006398640000    1.10311971760000   -0.17079735200000
H        -1.95209083850000    3.19787630220000    0.00644680070000
H         0.40446166660000   -1.89541077060000   -0.50605242620000
$end

$rem
BASIS = 6-31G*
GUI = 2
METHOD = B3LYP
PRINT_ORBITALS false
MOLDEN_FORMAT false
--------------------------------------------------------------
 ----------------------------------------------------------------
             Standard Nuclear Orientation (Angstroms)
    I     Atom           X                Y                Z
 ----------------------------------------------------------------
    1      C      -1.3057615335    -2.8472066766     0.4324912641
    2      C      -1.9329002323    -1.8439464888    -0.1687108272
    3      C      -1.5470160045    -0.4434904066    -0.1157687070
    4      C      -2.5127553965     0.5951003286    -0.0694791107
    5      C      -1.9654566969     1.8316567205     0.0210234110
    6      S      -0.2498997514     1.7893111745     0.0303168326
    7      C      -0.2565534515     0.0534006510    -0.0839984814
    8      C       0.9565766561    -0.6978360530    -0.2306177317
    9      C       2.1897613012    -0.2395266088    -0.0506120637
   10      F       2.5355531431     0.9838104695     0.3343687038
   11      F       3.2834030473    -0.9777134624    -0.2275373771
   12      H      -1.6672247185    -3.8583271612     0.3560504562
   13      H      -0.4345376862    -2.6964987970     1.0468791656
   14      H      -2.8462290311    -2.0361895694    -0.7184101647
   15      H      -3.5721871777     0.4105921219    -0.0843618989
   16      H      -2.4675235162     2.7766809554     0.0830979323
   17      H       0.8601245856    -1.7290182040    -0.5357732723
 ----------------------------------------------------------------
 Molecular Point Group                 C1    NOp =  1
 Largest Abelian Subgroup              C1    NOp =  1
 Nuclear Repulsion Energy =         667.67190056 hartrees
 There are       44 alpha and       44 beta electrons
 Requested basis set is 6-31G(d)
 There are 57 shells and 181 basis functions

 Total QAlloc Memory Limit   4000 MB
 Mega-Array Size       188 MB
 MEM_STATIC part       192 MB
 A cutoff of  1.0D-08 yielded   1205 shell pairs
 There are     12950 function pairs
 Smallest overlap matrix eigenvalue = 8.81E-04

 Scale SEOQF with 1.000000e-01/1.000000e-01/1.000000e+00

 Standard Electronic Orientation quadrupole field applied
 Nucleus-field energy     =     0.0000000205 hartrees
 Guess from superposition of atomic densities
 Warning:  Energy on first SCF cycle will be non-variational
 SAD guess density has 88.000000 electrons

 -----------------------------------------------------------------------
  General SCF calculation program by
  Eric Jon Sundstrom, Paul Horn, Yuezhi Mao, Dmitri Zuev, Alec White,
  David Stuck, Shaama M.S., Shane Yost, Joonho Lee, David Small,
  Daniel Levine, Susi Lehtola, Hugh Burton, Evgeny Epifanovsky,
  Bang C. Huynh
 -----------------------------------------------------------------------
 Exchange:     0.2000 Hartree-Fock + 0.0800 Slater + 0.7200 B88
 Correlation:  0.1900 VWN1RPA + 0.8100 LYP
 Using SG-1 standard quadrature grid
 A restricted SCF calculation will be
 performed using DIIS
 SCF converges when DIIS error is below 1.0e-05
 ---------------------------------------
  Cycle       Energy         DIIS error
 ---------------------------------------
    1    -908.7459848512      5.84e-02  
    2    -906.0533148366      7.10e-03  
    3    -905.6793977146      1.14e-02  
    4    -906.2499037806      2.03e-03  
    5    -906.2666712986      7.19e-04  
    6    -906.2682070683      3.81e-04  
    7    -906.2688103060      6.84e-05  
    8    -906.2688292072      2.34e-05  
    9    -906.2688312427      8.11e-06  Convergence criterion met
 ---------------------------------------
 SCF time:   CPU 20.41s  wall 20.00s 
 SCF   energy in the final basis set =     -906.2688312427
 Total energy in the final basis set =     -906.2688312427
 
 --------------------------------------------------------------
 
                    Orbital Energies (a.u.)
 --------------------------------------------------------------
 
 Alpha MOs
 -- Occupied --
-88.9084 -24.7447 -24.7357 -10.3564 -10.2277 -10.2124 -10.2083 -10.1994
-10.1986 -10.1913 -10.1854  -7.9702  -5.9342  -5.9303  -5.9272  -1.2853
 -1.2258  -0.8942  -0.8091  -0.7966  -0.7290  -0.7156  -0.6430  -0.6058
 -0.5815  -0.5787  -0.5397  -0.5192  -0.5076  -0.4896  -0.4618  -0.4429
 -0.4417  -0.4277  -0.4177  -0.4012  -0.3907  -0.3842  -0.3689  -0.3394
 -0.2992  -0.2966  -0.2411  -0.2060
 -- Virtual --
 -0.0423   0.0110   0.0323   0.0478   0.0924   0.1048   0.1165   0.1302
  0.1394   0.1518   0.1596   0.1765   0.1873   0.2141   0.2527   0.2850
  0.2936   0.3203   0.3465   0.3607   0.3745   0.4024   0.4303   0.4407
  0.4587   0.4958   0.5057   0.5219   0.5370   0.5547   0.5718   0.5746
  0.5818   0.5993   0.6019   0.6275   0.6333   0.6477   0.6848   0.6908
  0.7175   0.7193   0.7806   0.8002   0.8324   0.8466   0.8485   0.8618
  0.8690   0.8784   0.9046   0.9050   0.9233   0.9513   0.9743   0.9845
  1.0189   1.0481   1.0618   1.0972   1.1082   1.1178   1.1296   1.1660
  1.1782   1.2013   1.2354   1.2550   1.2807   1.3141   1.3590   1.3840
  1.3970   1.3994   1.4267   1.4609   1.4690   1.5118   1.5405   1.5672
  1.6190   1.6770   1.7070   1.7261   1.7706   1.7766   1.7899   1.8167
  1.8357   1.8751   1.8865   1.9187   1.9504   1.9661   1.9750   1.9933
  2.0143   2.0215   2.0473   2.1018   2.1339   2.1515   2.1905   2.2028
  2.2468   2.2627   2.2931   2.3131   2.3636   2.3913   2.4697   2.5055
  2.5131   2.5566   2.5786   2.6373   2.6884   2.7567   2.7770   2.7973
  2.8581   3.0064   3.0616   3.0888   3.2357   3.2554   3.9519   4.0773
  4.1055   4.1314   4.1549   4.2383   4.3028   4.4320   4.6178   4.7962
  5.2619
 --------------------------------------------------------------
 
          Ground-State Mulliken Net Atomic Charges

     Atom                 Charge (a.u.)
  ----------------------------------------
      1 C                    -0.347761
      2 C                    -0.118724
      3 C                     0.133288
      4 C                    -0.125799
      5 C                    -0.352968
      6 S                     0.268227
      7 C                    -0.205178
      8 C                    -0.237734
      9 C                     0.535566
     10 F                    -0.230566
     11 F                    -0.247493
     12 H                     0.145522
     13 H                     0.154578
     14 H                     0.136952
     15 H                     0.140845
     16 H                     0.172707
     17 H                     0.178538
  ----------------------------------------
  Sum of atomic charges =     0.000000

 -----------------------------------------------------------------
                    Cartesian Multipole Moments
 -----------------------------------------------------------------
    Charge (ESU x 10^10)
                 0.0000
    Dipole Moment (Debye)
         X      -1.5972      Y      -0.5815      Z      -0.1810
       Tot       1.7094
    Quadrupole Moments (Debye-Ang)
        XX     -65.8294     XY      -1.3629     YY     -63.3305
        XZ       1.0001     YZ       0.1920     ZZ     -70.6097
    Octopole Moments (Debye-Ang^2)
       XXX      16.0643    XXY       5.5328    XYY       2.0617
       YYY       2.1985    XXZ      -3.4583    XYZ      -3.4819
       YYZ       1.8845    XZZ      20.7926    YZZ      -0.3135
       ZZZ       1.4451
    Hexadecapole Moments (Debye-Ang^3)
      XXXX   -1390.8663   XXXY      -3.9988   XXYY    -383.0960
      XYYY     -18.1273   YYYY    -932.2015   XXXZ      14.5739
      XXYZ       8.8642   XYYZ       2.1541   YYYZ       2.5913
      XXZZ    -259.6459   XYZZ      -1.7075   YYZZ    -193.5497
      XZZZ       2.9388   YZZZ       5.4999   ZZZZ     -95.2020
 -----------------------------------------------------------------
Archival summary:
1\1\nia2015.scinet.local\SP\ProcedureUnspecified\6-31G*\1286\rhickman\TueFeb815:41:072022TueFeb815:41:072022\0\\#,ProcedureUnspecified,6-31G*,\\0,1\S\C,1,1.7161\H,2,1.07191,1,119.319\C,2,1.35529,1,112.429,3,179.969,0\H,4,1.07548,2,123.728,1,179.642,0\C,4,1.41897,2,113.275,1,0.856742,0\C,6,1.38319,4,111.795,2,-1.19836,0\C,7,1.43441,6,126.766,4,-174.215,0\H,8,1.0797,7,116.97,6,9.39444,0\C,8,1.32785,7,126.215,6,-171.93,0\F,10,1.32828,8,126.794,7,2.063,0\F,10,1.33127,8,123.61,7,-178.587,0\C,6,1.45361,4,121.714,2,177.934,0\H,13,1.08319,6,114.413,4,33.6695,0\C,13,1.32713,6,125.9,4,-143.218,0\H,15,1.07651,13,121.279,6,178.972,0\H,15,1.07667,13,122.349,6,1.1131,0\\\@

 Total job time:  20.63s(wall), 20.55s(cpu) 
 Tue Feb  8 15:41:07 2022

        *************************************************************
        *                                                           *
        *  Thank you very much for using Q-Chem.  Have a nice day.  *
        *                                                           *
        *************************************************************


