27
 energy: -49.340949403192 gnorm: 0.000079856378 xtb: 6.5.0 (unknown)
C           -3.19659636290000        2.28149004780000       -1.13031197580000
C           -3.08572343330000        1.25569168490000       -0.29724975760000
C           -1.89854228610000        0.40899401370000       -0.15323841160000
C           -2.10331934070000       -0.94642779700000        0.09895187640000
C           -1.03396226430000       -1.82024580810000        0.15373941950000
Cl          -1.31925520590000       -3.49799131740000        0.45388694780000
C            0.26007936190000       -1.37452353040000       -0.04020721340000
C            0.49780113190000       -0.01833598070000       -0.25551454430000
C            1.83126774290000        0.52477891150000       -0.46022137310000
C            2.99853048000000       -0.08311417110000       -0.31936125730000
F            3.23200021040000       -1.33710612240000        0.04837931430000
F            4.16318901080000        0.52556254160000       -0.53184699750000
C           -0.58556677300000        0.88148423480000       -0.29292329260000
O           -0.31041043140000        2.21588338480000       -0.48330774780000
C           -0.56762355750000        3.06360057050000        0.62897169100000
C            0.39633286720000        2.81905791750000        1.78484909820000
H           -4.11596560640000        2.83504453780000       -1.21832638900000
H           -2.37852960060000        2.59889707800000       -1.75365533560000
H           -3.94035369760000        0.94110382440000        0.28937968870000
H           -3.10874250090000       -1.31738499320000        0.22539854720000
H            1.07375085860000       -2.07911630010000       -0.01614461800000
H            1.86938240940000        1.56117856420000       -0.76196373820000
H           -1.60143682060000        2.93988527780000        0.97263575110000
H           -0.44467517280000        4.07509240870000        0.23498421000000
H            0.28946751500000        1.80256896920000        2.15872635420000
H            0.17787575940000        3.51343066060000        2.59125884420000
H            1.42459080250000        2.96578478230000        1.46402379420000
