
Running Job 1 of 1 fragments/B016/conf-3/spe_input.inp
qchem fragments/B016/conf-3/spe_input.inp_149703.0 /gpfs/fs0/scratch/a/aspuru/rhickman/descriptor_computation/qchem149703/ 0
/scinet/niagara/software/commercial/qc52/exe/qcprog.exe_s fragments/B016/conf-3/spe_input.inp_149703.0 /gpfs/fs0/scratch/a/aspuru/rhickman/descriptor_computation/qchem149703/
                  Welcome to Q-Chem
     A Quantum Leap Into The Future Of Chemistry


 Q-Chem 5.2, Q-Chem, Inc., Pleasanton, CA (2019)

 License issued to: SRG Alan Aspuru-Guzik, University of Toronto

 Yihan Shao,  Zhengting Gan,  E. Epifanovsky,  A. T. B. Gilbert,  M. Wormit,  
 J. Kussmann,  A. W. Lange,  A. Behn,  Jia Deng,  Xintian Feng,  D. Ghosh,  
 M. Goldey,  P. R. Horn,  L. D. Jacobson,  I. Kaliman,  T. Kus,  A. Landau,  
 Jie Liu,  E. I. Proynov,  R. M. Richard,  R. P. Steele,  E. J. Sundstrom,  
 H. L. Woodcock III,  P. M. Zimmerman,  D. Zuev,  B. Albrecht,  E. Alguire,  
 S. A. Baeppler,  D. Barton,  Z. Benda,  Y. A. Bernard,  E. J. Berquist,  
 K. B. Bravaya,  H. Burton,  D. Casanova,  Chun-Min Chang,  Yunqing Chen,  
 A. Chien,  K. D. Closser,  M. P. Coons,  S. Coriani,  S. Dasgupta,  
 A. L. Dempwolff,  M. Diedenhofen,  Hainam Do,  R. G. Edgar,  Po-Tung Fang,  
 S. Faraji,  S. Fatehi,  Qingguo Feng,  K. D. Fenk,  J. Fosso-Tande,  
 J. Gayvert,  Qinghui Ge,  A. Ghysels,  G. Gidofalvi,  J. Gomes,  
 J. Gonthier,  A. Gunina,  D. Hait,  M. W. D. Hanson-Heine,  
 P. H. P. Harbach,  A. W. Hauser,  M. F. Herbst,  J. E. Herr,  
 E. G. Hohenstein,  Z. C. Holden,  Kerwin Hui,  B. C. Huynh,  T.-C. Jagau,  
 Hyunjun Ji,  B. Kaduk,  K. Khistyaev,  Jaehoon Kim,  P. Klunzinger,  K. Koh,  
 D. Kosenkov,  L. Koulias,  T. Kowalczyk,  C. M. Krauter,  A. Kunitsa,  
 Ka Un Lao,  A. Laurent,  K. V. Lawler,  Joonho Lee,  D. Lefrancois,  
 S. Lehtola,  D. S. Levine,  Yi-Pei Li,  You-Sheng Lin,  Fenglai Liu,  
 E. Livshits,  A. Luenser,  P. Manohar,  E. Mansoor,  S. F. Manzer,  
 Shan-Ping Mao,  Yuezhi Mao,  N. Mardirossian,  A. V. Marenich,  
 T. Markovich,  L. A. Martinez-Martinez,  S. A. Maurer,  N. J. Mayhall,  
 S. C. McKenzie,  J.-M. Mewes,  P. Morgante,  A. F. Morrison,  
 J. W. Mullinax,  K. Nanda,  T. S. Nguyen-Beck,  R. Olivares-Amaya,  
 J. A. Parkhill,  Zheng Pei,  T. M. Perrine,  F. Plasser,  P. Pokhilko,  
 S. Prager,  A. Prociuk,  E. Ramos,  D. R. Rehn,  F. Rob,  M. Scheurer,  
 M. Schneider,  N. Sergueev,  S. M. Sharada,  S. Sharma,  D. W. Small,  
 T. Stauch,  T. Stein,  Yu-Chuan Su,  A. J. W. Thom,  A. Tkatchenko,  
 T. Tsuchimochi,  N. M. Tubman,  L. Vogt,  M. L. Vidal,  O. Vydrov,  
 M. A. Watson,  J. Wenzel,  M. de Wergifosse,  T. A. Wesolowski,  A. White,  
 J. Witte,  A. Yamada,  Jun Yang,  K. Yao,  S. Yeganeh,  S. R. Yost,  
 Zhi-Qiang You,  A. Zech,  Igor Ying Zhang,  Xing Zhang,  Yan Zhao,  
 Ying Zhu,  B. R. Brooks,  G. K. L. Chan,  C. J. Cramer,  M. S. Gordon,  
 W. J. Hehre,  A. Klamt,  M. W. Schmidt,  C. D. Sherrill,  D. G. Truhlar,  
 A. Aspuru-Guzik,  R. Baer,  A. T. Bell,  N. A. Besley,  Jeng-Da Chai,  
 A. E. DePrince, III,  R. A. DiStasio Jr.,  A. Dreuw,  B. D. Dunietz,  
 T. R. Furlani,  Chao-Ping Hsu,  Yousung Jung,  Jing Kong,  D. S. Lambrecht,  
 WanZhen Liang,  C. Ochsenfeld,  V. A. Rassolov,  L. V. Slipchenko,  
 J. E. Subotnik,  T. Van Voorhis,  J. M. Herbert,  A. I. Krylov,  
 P. M. W. Gill,  M. Head-Gordon

 Contributors to earlier versions of Q-Chem not listed above: 
 R. D. Adamson,  B. Austin,  J. Baker,  G. J. O. Beran,  K. Brandhorst,  
 S. T. Brown,  E. F. C. Byrd,  A. K. Chakraborty,  C.-L. Cheng,  
 Siu Hung Chien,  D. M. Chipman,  D. L. Crittenden,  H. Dachsel,  
 R. J. Doerksen,  A. D. Dutoi,  L. Fusti-Molnar,  W. A. Goddard III,  
 A. Golubeva-Zadorozhnaya,  S. R. Gwaltney,  G. Hawkins,  A. Heyden,  
 S. Hirata,  G. Kedziora,  F. J. Keil,  C. Kelley,  Jihan Kim,  R. A. King,  
 R. Z. Khaliullin,  P. P. Korambath,  W. Kurlancheek,  A. M. Lee,  M. S. Lee,  
 S. V. Levchenko,  Ching Yeh Lin,  D. Liotard,  R. C. Lochan,  I. Lotan,  
 P. E. Maslen,  N. Nair,  D. P. O'Neill,  D. Neuhauser,  E. Neuscamman,  
 C. M. Oana,  R. Olson,  B. Peters,  R. Peverati,  P. A. Pieniazek,  
 Y. M. Rhee,  J. Ritchie,  M. A. Rohrdanz,  E. Rosta,  N. J. Russ,  
 H. F. Schaefer III,  N. E. Schultz,  N. Shenvi,  A. C. Simmonett,  A. Sodt,  
 D. Stuck,  K. S. Thanthiriwatte,  V. Vanovschi,  Tao Wang,  A. Warshel,  
 C. F. Williams,  Q. Wu,  X. Xu,  W. Zhang

 Please cite Q-Chem as follows:
 Y. Shao et al., Mol. Phys. 113, 184-215 (2015)
 DOI: 10.1080/00268976.2014.952696

 Q-Chem 5.2.1 for Intel X86 EM64T Linux

 Parts of Q-Chem use Armadillo 8.300.2 (Tropical Shenanigans).
 http://arma.sourceforge.net/

 Q-Chem begins on Mon Feb  7 17:37:40 2022  

Host: 
0

     Scratch files written to /gpfs/fs0/scratch/a/aspuru/rhickman/descriptor_computation/qchem149703//
 Jul1719 |scratch|qcdevops|jenkins|workspace|build_RNUM -1
Processing $rem in /scinet/niagara/software/commercial/qc52/config/preferences:
	 MEM_TOTAL  4000 
NAlpha2: 102
NElect   102
Mult     1

Checking the input file for inconsistencies... 	...done.

--------------------------------------------------------------
User input:
--------------------------------------------------------------
$molecule
0 1
C        -0.84315157620000    4.36059635630000   -0.03291800450000
C        -1.57912192780000    3.25768112830000    0.02818041980000
C        -1.09340267360000    1.88169937490000    0.01839075650000
C        -2.02879712640000    0.84556449560000    0.01037197900000
C        -1.60189494620000   -0.46987638980000   -0.00155482290000
Cl       -2.77474081740000   -1.74062870330000   -0.01334202990000
C        -0.25726326780000   -0.79514932050000   -0.00312503810000
C         0.69105212800000    0.22951497900000    0.00811344720000
C         2.12496090350000   -0.01952390870000    0.01008971950000
C         2.76108433760000   -1.18193809890000   -0.00016046770000
F         2.24015170640000   -2.40054979240000   -0.01442042120000
F         4.08792057470000   -1.28057564450000    0.00295862290000
C         0.25991829350000    1.55456985480000    0.01869217120000
H        -1.29909324320000    5.33537830520000   -0.02116311420000
H         0.23101449300000    4.34653572140000   -0.09964661740000
H        -2.65631491290000    3.35000665330000    0.08613582720000
H        -3.08487195940000    1.06711519260000    0.01145283150000
H         0.03649728000000   -1.83070469500000   -0.01164890370000
H         2.76470473250000    0.85096173150000    0.02100200320000
H         0.99810311160000    2.34062051820000    0.03092523350000
$end

$rem
BASIS = 6-31G*
GUI = 2
METHOD = B3LYP
PRINT_ORBITALS false
MOLDEN_FORMAT false
--------------------------------------------------------------
 ----------------------------------------------------------------
             Standard Nuclear Orientation (Angstroms)
    I     Atom           X                Y                Z
 ----------------------------------------------------------------
    1      C       3.1325443544    -2.9940270466    -0.0404149113
    2      C       3.0930815324    -1.6688101820     0.0232272407
    3      C       1.8997530172    -0.8290160444     0.0156326087
    4      C       2.0614730978     0.5574973481     0.0101737471
    5      C       0.9511629396     1.3820503856     0.0003715075
    6      Cl      1.1703995886     3.0973866900    -0.0082582476
    7      C      -0.3331128911     0.8677827089    -0.0015371125
    8      C      -0.5120089829    -0.5168782534     0.0071535643
    9      C      -1.8248509359    -1.1450204316     0.0085888201
   10      C      -3.0169630733    -0.5664356640     0.0000355759
   11      F      -3.2987559348     0.7285722912    -0.0116173728
   12      F      -4.1553789341    -1.2550844698     0.0024113524
   13      C       0.6073210961    -1.3468105802     0.0155929763
   14      H       4.0690757888    -3.5241440786    -0.0301370820
   15      H       2.2490163556    -3.6050194680    -0.1078663000
   16      H       4.0244334923    -1.1198251194     0.0817634413
   17      H       3.0504851885     0.9890446011     0.0115828385
   18      H      -1.1727039884     1.5414169576    -0.0083589653
   19      H      -1.8416507952    -2.2251943519     0.0174522897
   20      H       0.4613638448    -2.4152361061     0.0258640700
 ----------------------------------------------------------------
 Molecular Point Group                 C1    NOp =  1
 Largest Abelian Subgroup              C1    NOp =  1
 Nuclear Repulsion Energy =         807.50176887 hartrees
 There are       51 alpha and       51 beta electrons
 Requested basis set is 6-31G(d)
 There are 67 shells and 213 basis functions

 Total QAlloc Memory Limit   4000 MB
 Mega-Array Size       188 MB
 MEM_STATIC part       192 MB
 A cutoff of  1.0D-08 yielded   1512 shell pairs
 There are     16014 function pairs
 Smallest overlap matrix eigenvalue = 3.73E-04

 Scale SEOQF with 1.000000e-01/1.000000e-01/1.000000e+00

 Standard Electronic Orientation quadrupole field applied
 Nucleus-field energy     =     0.0000000447 hartrees
 Guess from superposition of atomic densities
 Warning:  Energy on first SCF cycle will be non-variational
 SAD guess density has 102.000000 electrons

 -----------------------------------------------------------------------
  General SCF calculation program by
  Eric Jon Sundstrom, Paul Horn, Yuezhi Mao, Dmitri Zuev, Alec White,
  David Stuck, Shaama M.S., Shane Yost, Joonho Lee, David Small,
  Daniel Levine, Susi Lehtola, Hugh Burton, Evgeny Epifanovsky,
  Bang C. Huynh
 -----------------------------------------------------------------------
 Exchange:     0.2000 Hartree-Fock + 0.0800 Slater + 0.7200 B88
 Correlation:  0.1900 VWN1RPA + 0.8100 LYP
 Using SG-1 standard quadrature grid
 A restricted SCF calculation will be
 performed using DIIS
 SCF converges when DIIS error is below 1.0e-05
 ---------------------------------------
  Cycle       Energy         DIIS error
 ---------------------------------------
    1   -1048.0185042233      5.35e-02  
    2   -1044.9106489722      5.85e-03  
    3   -1044.7077231717      8.26e-03  
    4   -1045.0953579161      1.58e-03  
    5   -1045.1094797509      5.02e-04  
    6   -1045.1106312407      2.34e-04  
    7   -1045.1109360298      5.60e-05  
    8   -1045.1109535786      1.96e-05  
    9   -1045.1109557819      5.59e-06  Convergence criterion met
 ---------------------------------------
 SCF time:   CPU 27.91s  wall 28.00s 
 SCF   energy in the final basis set =    -1045.1109557819
 Total energy in the final basis set =    -1045.1109557819
 
 --------------------------------------------------------------
 
                    Orbital Energies (a.u.)
 --------------------------------------------------------------
 
 Alpha MOs
 -- Occupied --
******** -24.7526 -24.7415 -10.3658 -10.2529 -10.2202 -10.2112 -10.2107
-10.2018 -10.2015 -10.2004 -10.1992 -10.1904  -9.4667  -7.2304  -7.2211
 -7.2207  -1.2941  -1.2326  -0.9031  -0.8576  -0.8245  -0.7840  -0.7459
 -0.7336  -0.6567  -0.6409  -0.6136  -0.5806  -0.5701  -0.5287  -0.5271
 -0.5158  -0.4974  -0.4598  -0.4583  -0.4484  -0.4458  -0.4351  -0.4257
 -0.4146  -0.4090  -0.3880  -0.3665  -0.3589  -0.3526  -0.3286  -0.3141
 -0.2782  -0.2367  -0.2304
 -- Virtual --
 -0.0468  -0.0321   0.0318   0.0385   0.0780   0.0818   0.1107   0.1159
  0.1442   0.1574   0.1635   0.1717   0.1933   0.1979   0.2153   0.2518
  0.2789   0.2892   0.3238   0.3284   0.3696   0.3969   0.4024   0.4140
  0.4331   0.4411   0.4517   0.4710   0.4912   0.5123   0.5214   0.5307
  0.5399   0.5535   0.5584   0.5694   0.5703   0.5774   0.5901   0.5979
  0.5998   0.6142   0.6332   0.6466   0.6599   0.6866   0.6896   0.7506
  0.7592   0.7713   0.7762   0.8130   0.8174   0.8233   0.8503   0.8587
  0.8724   0.8807   0.8887   0.9187   0.9296   0.9386   0.9573   0.9682
  0.9781   1.0166   1.0317   1.0787   1.1010   1.1041   1.1160   1.1532
  1.1534   1.1557   1.2006   1.2063   1.2243   1.2390   1.2581   1.2876
  1.3071   1.3327   1.3544   1.3961   1.3973   1.4263   1.4483   1.4500
  1.4734   1.4766   1.4944   1.5058   1.5325   1.5477   1.5756   1.6402
  1.6671   1.7121   1.7629   1.7751   1.7839   1.8106   1.8259   1.8297
  1.8600   1.8692   1.8869   1.9397   1.9546   1.9729   1.9788   1.9946
  2.0166   2.0198   2.0233   2.0329   2.1041   2.1289   2.1495   2.1544
  2.1719   2.2256   2.2328   2.2481   2.2738   2.2998   2.3506   2.3655
  2.3917   2.4991   2.5143   2.5245   2.5874   2.6051   2.6193   2.6241
  2.6847   2.6860   2.7356   2.7882   2.8256   2.8856   2.9138   2.9554
  3.0403   3.1353   3.1649   3.3048   3.4422   4.0644   4.0691   4.0807
  4.1188   4.1416   4.2284   4.2447   4.2813   4.4057   4.4846   4.7123
  4.8082   5.3014
 --------------------------------------------------------------
 
          Ground-State Mulliken Net Atomic Charges

     Atom                 Charge (a.u.)
  ----------------------------------------
      1 C                    -0.349249
      2 C                    -0.112272
      3 C                     0.182122
      4 C                    -0.201652
      5 C                    -0.068127
      6 Cl                   -0.013127
      7 C                    -0.196821
      8 C                     0.201025
      9 C                    -0.296342
     10 C                     0.548967
     11 F                    -0.229704
     12 F                    -0.244655
     13 C                    -0.253265
     14 H                     0.150411
     15 H                     0.145864
     16 H                     0.133449
     17 H                     0.150441
     18 H                     0.159938
     19 H                     0.162866
     20 H                     0.130131
  ----------------------------------------
  Sum of atomic charges =     0.000000

 -----------------------------------------------------------------
                    Cartesian Multipole Moments
 -----------------------------------------------------------------
    Charge (ESU x 10^10)
                 0.0000
    Dipole Moment (Debye)
         X       0.6748      Y      -2.1505      Z       0.0125
       Tot       2.2539
    Quadrupole Moments (Debye-Ang)
        XX     -76.7186     XY      -2.2366     YY     -77.6828
        XZ       0.1102     YZ       0.1026     ZZ     -82.4238
    Octopole Moments (Debye-Ang^2)
       XXX     -10.2250    XXY      -0.2783    XYY     -16.4092
       YYY     -16.7841    XXZ       0.6517    XYZ       0.1828
       YYZ      -0.6062    XZZ     -25.3335    YZZ       6.7702
       ZZZ      -0.1416
    Hexadecapole Moments (Debye-Ang^3)
      XXXX   -2440.7049   XXXY     -15.0180   XXYY    -662.4255
      XYYY       1.2358   YYYY   -1556.3471   XXXZ       3.2751
      XXYZ      -0.0749   XYYZ      -1.2857   YYYZ       2.0372
      XXZZ    -440.2667   XYZZ      21.4618   YYZZ    -300.3794
      XZZZ       0.4268   YZZZ      -0.2649   ZZZZ     -81.1797
 -----------------------------------------------------------------
Archival summary:
1\1\nia1977.scinet.local\SP\ProcedureUnspecified\6-31G*\l12107\rhickman\MonFeb717:38:082022MonFeb717:38:082022\0\\#,ProcedureUnspecified,6-31G*,\\0,1\Cl\C,1,1.72931\C,2,1.38303,1,119.316\H,3,1.07906,2,119.827,1,-0.0466987,0\C,2,1.38342,1,119.105,3,179.944,0\H,5,1.07645,2,119.436,1,0.00106845,0\C,3,1.39592,2,119.947,1,-179.925,0\C,7,1.3923,3,118.485,2,-0.216139,0\H,8,1.0784,7,119.61,3,-179.627,0\C,8,1.39347,7,121.611,3,0.150658,0\C,10,1.45538,8,117.875,7,-179.964,0\H,11,1.08034,10,116.46,8,0.0745191,0\C,11,1.32513,10,128.54,8,-179.905,0\F,13,1.32536,11,128.167,10,-0.0167693,0\F,13,1.3305,11,122.939,10,179.995,0\C,7,1.45923,3,118.483,2,179.878,0\H,16,1.08269,7,114.327,3,3.35968,0\C,16,1.32733,7,126.774,3,-176.252,0\H,18,1.07621,16,121.145,7,179.874,0\H,18,1.07633,16,123.049,7,0.070996,0\\\@

 Total job time:  28.29s(wall), 28.08s(cpu) 
 Mon Feb  7 17:38:08 2022

        *************************************************************
        *                                                           *
        *  Thank you very much for using Q-Chem.  Have a nice day.  *
        *                                                           *
        *************************************************************


