19
 energy: -35.167567880964 gnorm: 0.000044386474 xtb: 6.4.1 (23d549d)
C         4.73252805740000   -0.40216362800000   -0.01656352020000
C         3.68840397360000    0.41872125460000   -0.00276158500000
C         2.28701001320000    0.03079532610000    0.00388345660000
C         1.83765398450000   -1.29262283990000    0.02807016720000
C         0.48328498930000   -1.55267446260000    0.03196094240000
C        -0.41534436740000   -0.48055507520000    0.01182924520000
C        -1.84677033680000   -0.73127894740000    0.01577486330000
C        -2.79112382770000    0.20029381940000   -0.00389224670000
F        -2.63909515030000    1.50733255090000   -0.03056756880000
F        -4.09093738770000   -0.08966064430000    0.00098286810000
N         0.00585802180000    0.78300566970000   -0.01053505900000
C         1.29639010760000    1.02132425020000   -0.01388345150000
H         5.74006073250000   -0.02394033660000   -0.02166996500000
H         4.63273680300000   -1.47413476890000   -0.02463291410000
H         3.85625659640000    1.48865430070000    0.00178114180000
H         2.54176331950000   -2.11075239680000    0.04533358140000
H         0.11655640370000   -2.56772530260000    0.05085950270000
H        -2.17497118930000   -1.75881060530000    0.03628006500000
H         1.57037849650000    2.06906244780000   -0.03238008800000
