23
 energy: -38.061794914517 gnorm: 0.000072140018 xtb: 6.5.0 (unknown)
C           -4.18617393440000        0.74832295500000        0.15253541880000
C           -2.92794561760000        0.90686810440000       -0.23200400930000
C           -1.88243151020000       -0.10991737440000       -0.08538822980000
C           -2.19637358350000       -1.45112428700000       -0.28247247380000
C           -1.22723675430000       -2.42934886020000       -0.16343376820000
C            0.07251469440000       -2.06877325730000        0.12646156100000
C            0.41678988650000       -0.72775994330000        0.29792343450000
C            1.83251665970000       -0.44195290290000        0.55878955390000
C            2.56639977060000        0.46833486150000       -0.05514164450000
F            2.17142775330000        1.30783490770000       -1.00533423720000
F            3.86270342690000        0.66540641190000        0.18733613470000
C           -0.56637247250000        0.26282561780000        0.22666133430000
C           -0.26066363060000        1.69591026220000        0.54439157080000
H           -4.92424728410000        1.51872553110000        0.00752147050000
H           -4.52429118150000       -0.14890433000000        0.64413260660000
H           -2.62238679350000        1.83539279040000       -0.69597629830000
H           -3.20867496420000       -1.72232115020000       -0.54121100500000
H           -1.48276637300000       -3.46866506930000       -0.30537076120000
H            0.84139933420000       -2.82336857950000        0.20402570370000
H            2.34716717200000       -1.07937299900000        1.26286330130000
H           -0.10593497330000        2.26903634000000       -0.36993179350000
H            0.63835094950000        1.77860249960000        1.15030026450000
H           -1.08617930420000        2.14404270780000        1.09310640440000
